   2   2   1   0
  0.2043979E+02  0.3866700E-09  0.3866700E-09  0.3866700E-09  0.5000000E-15
  1.000000000000000E-004
  CAR 
 unknown system                          
     17.50440509     -8.19668743  301      5.68725692      1.00000000
     -8.197  0.0000E+00  0.0000E+00
     -8.111  0.0000E+00  0.0000E+00
     -8.025  0.0000E+00  0.0000E+00
     -7.940  0.0000E+00  0.0000E+00
     -7.854  0.0000E+00  0.0000E+00
     -7.768  0.0000E+00  0.0000E+00
     -7.683  0.0000E+00  0.0000E+00
     -7.597  0.0000E+00  0.0000E+00
     -7.511  0.0000E+00  0.0000E+00
     -7.426  0.0000E+00  0.0000E+00
     -7.340  0.0000E+00  0.0000E+00
     -7.254  0.0000E+00  0.0000E+00
     -7.169  0.0000E+00  0.0000E+00
     -7.083  0.0000E+00  0.0000E+00
     -6.997  0.0000E+00  0.0000E+00
     -6.912  0.0000E+00  0.0000E+00
     -6.826  0.0000E+00  0.0000E+00
     -6.740  0.0000E+00  0.0000E+00
     -6.655  0.0000E+00  0.0000E+00
     -6.569  0.0000E+00  0.0000E+00
     -6.483  0.0000E+00  0.0000E+00
     -6.398  0.0000E+00  0.0000E+00
     -6.312  0.0000E+00  0.0000E+00
     -6.226  0.0000E+00  0.0000E+00
     -6.141  0.7839E-01  0.2765E-02
     -6.055  0.1328E+00  0.1199E-01
     -5.969  0.1699E+00  0.2490E-01
     -5.884  0.1996E+00  0.4066E-01
     -5.798  0.2258E+00  0.5890E-01
     -5.712  0.2506E+00  0.7937E-01
     -5.627  0.2750E+00  0.1019E+00
     -5.541  0.2956E+00  0.1263E+00
     -5.455  0.3171E+00  0.1526E+00
     -5.370  0.3370E+00  0.1806E+00
     -5.284  0.3571E+00  0.2103E+00
     -5.198  0.3763E+00  0.2417E+00
     -5.113  0.3959E+00  0.2748E+00
     -5.027  0.4148E+00  0.3095E+00
     -4.941  0.4348E+00  0.3459E+00
     -4.856  0.4539E+00  0.3840E+00
     -4.770  0.4743E+00  0.4237E+00
     -4.684  0.4947E+00  0.4653E+00
     -4.599  0.5162E+00  0.5085E+00
     -4.513  0.5392E+00  0.5538E+00
     -4.427  0.5633E+00  0.6010E+00
     -4.342  0.5903E+00  0.6504E+00
     -4.256  0.6202E+00  0.7022E+00
     -4.170  0.6554E+00  0.7568E+00
     -4.085  0.6992E+00  0.8147E+00
     -3.999  0.7612E+00  0.8771E+00
     -3.913  0.9101E+00  0.9476E+00
     -3.828  0.8870E+00  0.1026E+01
     -3.742  0.8653E+00  0.1101E+01
     -3.656  0.8324E+00  0.1174E+01
     -3.570  0.8032E+00  0.1244E+01
     -3.485  0.7734E+00  0.1312E+01
     -3.399  0.7451E+00  0.1376E+01
     -3.313  0.7123E+00  0.1439E+01
     -3.228  0.6835E+00  0.1499E+01
     -3.142  0.6517E+00  0.1556E+01
     -3.056  0.6206E+00  0.1610E+01
     -2.971  0.5886E+00  0.1662E+01
     -2.885  0.5567E+00  0.1711E+01
     -2.799  0.5228E+00  0.1757E+01
     -2.714  0.4885E+00  0.1801E+01
     -2.628  0.4521E+00  0.1841E+01
     -2.542  0.4141E+00  0.1878E+01
     -2.457  0.3720E+00  0.1912E+01
     -2.371  0.3350E+00  0.1942E+01
     -2.285  0.3070E+00  0.1969E+01
     -2.200  0.1671E+00  0.1990E+01
     -2.114  0.3889E-01  0.2000E+01
     -2.028  0.2792E-01  0.2001E+01
     -1.943  0.9741E-01  0.2006E+01
     -1.857  0.1932E+00  0.2018E+01
     -1.771  0.2518E+00  0.2039E+01
     -1.686  0.3085E+00  0.2063E+01
     -1.600  0.3617E+00  0.2091E+01
     -1.514  0.4097E+00  0.2124E+01
     -1.429  0.4700E+00  0.2162E+01
     -1.343  0.5323E+00  0.2205E+01
     -1.257  0.6137E+00  0.2254E+01
     -1.172  0.1110E+01  0.2327E+01
     -1.086  0.2705E+01  0.2454E+01
     -1.000  0.1242E+01  0.2594E+01
     -0.915  0.1003E+01  0.2689E+01
     -0.829  0.8723E+00  0.2769E+01
     -0.743  0.7789E+00  0.2839E+01
     -0.658  0.7152E+00  0.2903E+01
     -0.572  0.6603E+00  0.2962E+01
     -0.486  0.6127E+00  0.3017E+01
     -0.401  0.5759E+00  0.3067E+01
     -0.315  0.5409E+00  0.3115E+01
     -0.229  0.5081E+00  0.3160E+01
     -0.144  0.4828E+00  0.3203E+01
     -0.058  0.4574E+00  0.3243E+01
      0.028  0.4311E+00  0.3281E+01
      0.113  0.4121E+00  0.3317E+01
      0.199  0.3927E+00  0.3352E+01
      0.285  0.3718E+00  0.3384E+01
      0.370  0.3548E+00  0.3415E+01
      0.456  0.3398E+00  0.3445E+01
      0.542  0.3239E+00  0.3474E+01
      0.627  0.3066E+00  0.3501E+01
      0.713  0.2947E+00  0.3526E+01
      0.799  0.2823E+00  0.3551E+01
      0.884  0.2688E+00  0.3575E+01
      0.970  0.2552E+00  0.3597E+01
      1.056  0.2455E+00  0.3618E+01
      1.141  0.2351E+00  0.3639E+01
      1.227  0.2239E+00  0.3659E+01
      1.313  0.2203E+00  0.3677E+01
      1.398  0.6180E+00  0.3718E+01
      1.484  0.8436E+00  0.3781E+01
      1.570  0.1172E+01  0.3865E+01
      1.655  0.1251E+01  0.3975E+01
      1.741  0.1179E+01  0.4080E+01
      1.827  0.1102E+01  0.4178E+01
      1.912  0.1044E+01  0.4270E+01
      1.998  0.1034E+01  0.4358E+01
      2.084  0.1033E+01  0.4447E+01
      2.169  0.1045E+01  0.4537E+01
      2.255  0.1066E+01  0.4628E+01
      2.341  0.1084E+01  0.4720E+01
      2.426  0.1148E+01  0.4814E+01
      2.512  0.1156E+01  0.4912E+01
      2.598  0.1190E+01  0.5012E+01
      2.683  0.1289E+01  0.5119E+01
      2.769  0.1400E+01  0.5232E+01
      2.855  0.1566E+01  0.5360E+01
      2.940  0.1538E+01  0.5494E+01
      3.026  0.1521E+01  0.5625E+01
      3.112  0.1492E+01  0.5754E+01
      3.197  0.1465E+01  0.5880E+01
      3.283  0.1442E+01  0.6005E+01
      3.369  0.1416E+01  0.6127E+01
      3.454  0.1393E+01  0.6247E+01
      3.540  0.1372E+01  0.6366E+01
      3.626  0.1340E+01  0.6482E+01
      3.711  0.1324E+01  0.6596E+01
      3.797  0.1300E+01  0.6709E+01
      3.883  0.1277E+01  0.6819E+01
      3.968  0.1253E+01  0.6927E+01
      4.054  0.1235E+01  0.7034E+01
      4.140  0.1218E+01  0.7139E+01
      4.226  0.1198E+01  0.7242E+01
      4.311  0.1179E+01  0.7344E+01
      4.397  0.1162E+01  0.7445E+01
      4.483  0.9228E+00  0.7537E+01
      4.568  0.7818E+00  0.7609E+01
      4.654  0.6834E+00  0.7671E+01
      4.740  0.5998E+00  0.7726E+01
      4.825  0.5306E+00  0.7775E+01
      4.911  0.4695E+00  0.7817E+01
      4.997  0.4130E+00  0.7855E+01
      5.082  0.3606E+00  0.7888E+01
      5.168  0.3148E+00  0.7917E+01
      5.254  0.2661E+00  0.7942E+01
      5.339  0.2215E+00  0.7963E+01
      5.425  0.1706E+00  0.7980E+01
      5.511  0.1214E+00  0.7993E+01
      5.596  0.4094E-01  0.8000E+01
      5.682  0.0000E+00  0.8000E+01
      5.768  0.0000E+00  0.8000E+01
      5.853  0.0000E+00  0.8000E+01
      5.939  0.0000E+00  0.8000E+01
      6.025  0.0000E+00  0.8000E+01
      6.110  0.0000E+00  0.8000E+01
      6.196  0.0000E+00  0.8000E+01
      6.282  0.6317E-01  0.8001E+01
      6.367  0.1488E+00  0.8011E+01
      6.453  0.2413E+00  0.8027E+01
      6.539  0.3005E+00  0.8050E+01
      6.624  0.3567E+00  0.8079E+01
      6.710  0.4160E+00  0.8112E+01
      6.796  0.4631E+00  0.8149E+01
      6.881  0.5065E+00  0.8191E+01
      6.967  0.5524E+00  0.8236E+01
      7.053  0.6012E+00  0.8286E+01
      7.138  0.6756E+00  0.8340E+01
      7.224  0.7682E+00  0.8402E+01
      7.310  0.8455E+00  0.8471E+01
      7.395  0.9277E+00  0.8547E+01
      7.481  0.1016E+01  0.8630E+01
      7.567  0.1118E+01  0.8722E+01
      7.652  0.1236E+01  0.8822E+01
      7.738  0.1431E+01  0.8936E+01
      7.824  0.1724E+01  0.9072E+01
      7.909  0.1646E+01  0.9214E+01
      7.995  0.1651E+01  0.9355E+01
      8.081  0.1564E+01  0.9492E+01
      8.166  0.1477E+01  0.9620E+01
      8.252  0.1289E+01  0.9738E+01
      8.338  0.1235E+01  0.9846E+01
      8.423  0.1169E+01  0.9947E+01
      8.509  0.1115E+01  0.1004E+02
      8.595  0.1138E+01  0.1014E+02
      8.680  0.9413E+00  0.1023E+02
      8.766  0.9805E+00  0.1031E+02
      8.852  0.1497E+01  0.1041E+02
      8.937  0.2583E+01  0.1061E+02
      9.023  0.2169E+01  0.1081E+02
      9.109  0.1821E+01  0.1098E+02
      9.194  0.1669E+01  0.1113E+02
      9.280  0.1709E+01  0.1127E+02
      9.366  0.1804E+01  0.1143E+02
      9.451  0.1784E+01  0.1158E+02
      9.537  0.1416E+01  0.1172E+02
      9.623  0.1263E+01  0.1183E+02
      9.708  0.1137E+01  0.1193E+02
      9.794  0.1137E+01  0.1203E+02
      9.880  0.1262E+01  0.1213E+02
      9.965  0.1179E+01  0.1223E+02
     10.051  0.1292E+01  0.1234E+02
     10.137  0.1482E+01  0.1246E+02
     10.222  0.1317E+01  0.1258E+02
     10.308  0.1245E+01  0.1269E+02
     10.394  0.1280E+01  0.1280E+02
     10.479  0.1264E+01  0.1290E+02
     10.565  0.1302E+01  0.1301E+02
     10.651  0.1237E+01  0.1312E+02
     10.736  0.1179E+01  0.1322E+02
     10.822  0.1187E+01  0.1333E+02
     10.908  0.1200E+01  0.1343E+02
     10.993  0.1165E+01  0.1353E+02
     11.079  0.1184E+01  0.1363E+02
     11.165  0.1163E+01  0.1374E+02
     11.250  0.1106E+01  0.1383E+02
     11.336  0.1104E+01  0.1393E+02
     11.422  0.1068E+01  0.1402E+02
     11.507  0.1056E+01  0.1411E+02
     11.593  0.1062E+01  0.1420E+02
     11.679  0.1004E+01  0.1429E+02
     11.764  0.9923E+00  0.1438E+02
     11.850  0.9651E+00  0.1446E+02
     11.936  0.9386E+00  0.1454E+02
     12.022  0.8638E+00  0.1462E+02
     12.107  0.9157E+00  0.1469E+02
     12.193  0.9990E+00  0.1478E+02
     12.279  0.1018E+01  0.1487E+02
     12.364  0.9118E+00  0.1495E+02
     12.450  0.8282E+00  0.1502E+02
     12.536  0.7755E+00  0.1509E+02
     12.621  0.7402E+00  0.1516E+02
     12.707  0.7008E+00  0.1522E+02
     12.793  0.6764E+00  0.1528E+02
     12.878  0.6517E+00  0.1534E+02
     12.964  0.6033E+00  0.1539E+02
     13.050  0.5747E+00  0.1544E+02
     13.135  0.5478E+00  0.1549E+02
     13.221  0.5276E+00  0.1553E+02
     13.307  0.5253E+00  0.1558E+02
     13.392  0.7717E+00  0.1563E+02
     13.478  0.5416E+00  0.1568E+02
     13.564  0.4893E+00  0.1573E+02
     13.649  0.3830E+00  0.1577E+02
     13.735  0.2724E+00  0.1579E+02
     13.821  0.2350E+00  0.1582E+02
     13.906  0.2234E+00  0.1583E+02
     13.992  0.2099E+00  0.1585E+02
     14.078  0.1986E+00  0.1587E+02
     14.163  0.1731E+00  0.1589E+02
     14.249  0.1566E+00  0.1590E+02
     14.335  0.1443E+00  0.1591E+02
     14.420  0.1354E+00  0.1593E+02
     14.506  0.1257E+00  0.1594E+02
     14.592  0.1145E+00  0.1595E+02
     14.677  0.1039E+00  0.1596E+02
     14.763  0.8847E-01  0.1596E+02
     14.849  0.7530E-01  0.1597E+02
     14.934  0.6488E-01  0.1598E+02
     15.020  0.5995E-01  0.1598E+02
     15.106  0.5335E-01  0.1599E+02
     15.191  0.4943E-01  0.1599E+02
     15.277  0.3132E-01  0.1600E+02
     15.363  0.2030E-01  0.1600E+02
     15.448  0.1313E-01  0.1600E+02
     15.534  0.0000E+00  0.1600E+02
     15.620  0.0000E+00  0.1600E+02
     15.705  0.0000E+00  0.1600E+02
     15.791  0.0000E+00  0.1600E+02
     15.877  0.0000E+00  0.1600E+02
     15.962  0.0000E+00  0.1600E+02
     16.048  0.0000E+00  0.1600E+02
     16.134  0.0000E+00  0.1600E+02
     16.219  0.0000E+00  0.1600E+02
     16.305  0.0000E+00  0.1600E+02
     16.391  0.0000E+00  0.1600E+02
     16.476  0.0000E+00  0.1600E+02
     16.562  0.0000E+00  0.1600E+02
     16.648  0.0000E+00  0.1600E+02
     16.733  0.0000E+00  0.1600E+02
     16.819  0.0000E+00  0.1600E+02
     16.905  0.0000E+00  0.1600E+02
     16.990  0.0000E+00  0.1600E+02
     17.076  0.0000E+00  0.1600E+02
     17.162  0.0000E+00  0.1600E+02
     17.247  0.0000E+00  0.1600E+02
     17.333  0.0000E+00  0.1600E+02
     17.419  0.0000E+00  0.1600E+02
     17.504  0.0000E+00  0.1600E+02
     17.50440509     -8.19668743  301      5.68725692      1.00000000
     -8.197  0.0000E+00  0.0000E+00  0.0000E+00  0.0000E+00  0.0000E+00  0.0000E+00  0.0000E+00  0.0000E+00  0.0000E+00
     -8.111  0.0000E+00  0.0000E+00  0.0000E+00  0.0000E+00  0.0000E+00  0.0000E+00  0.0000E+00  0.0000E+00  0.0000E+00
     -8.025  0.0000E+00  0.0000E+00  0.0000E+00  0.0000E+00  0.0000E+00  0.0000E+00  0.0000E+00  0.0000E+00  0.0000E+00
     -7.940  0.0000E+00  0.0000E+00  0.0000E+00  0.0000E+00  0.0000E+00  0.0000E+00  0.0000E+00  0.0000E+00  0.0000E+00
     -7.854  0.0000E+00  0.0000E+00  0.0000E+00  0.0000E+00  0.0000E+00  0.0000E+00  0.0000E+00  0.0000E+00  0.0000E+00
     -7.768  0.0000E+00  0.0000E+00  0.0000E+00  0.0000E+00  0.0000E+00  0.0000E+00  0.0000E+00  0.0000E+00  0.0000E+00
     -7.683  0.0000E+00  0.0000E+00  0.0000E+00  0.0000E+00  0.0000E+00  0.0000E+00  0.0000E+00  0.0000E+00  0.0000E+00
     -7.597  0.0000E+00  0.0000E+00  0.0000E+00  0.0000E+00  0.0000E+00  0.0000E+00  0.0000E+00  0.0000E+00  0.0000E+00
     -7.511  0.0000E+00  0.0000E+00  0.0000E+00  0.0000E+00  0.0000E+00  0.0000E+00  0.0000E+00  0.0000E+00  0.0000E+00
     -7.426  0.0000E+00  0.0000E+00  0.0000E+00  0.0000E+00  0.0000E+00  0.0000E+00  0.0000E+00  0.0000E+00  0.0000E+00
     -7.340  0.0000E+00  0.0000E+00  0.0000E+00  0.0000E+00  0.0000E+00  0.0000E+00  0.0000E+00  0.0000E+00  0.0000E+00
     -7.254  0.0000E+00  0.0000E+00  0.0000E+00  0.0000E+00  0.0000E+00  0.0000E+00  0.0000E+00  0.0000E+00  0.0000E+00
     -7.169  0.0000E+00  0.0000E+00  0.0000E+00  0.0000E+00  0.0000E+00  0.0000E+00  0.0000E+00  0.0000E+00  0.0000E+00
     -7.083  0.0000E+00  0.0000E+00  0.0000E+00  0.0000E+00  0.0000E+00  0.0000E+00  0.0000E+00  0.0000E+00  0.0000E+00
     -6.997  0.0000E+00  0.0000E+00  0.0000E+00  0.0000E+00  0.0000E+00  0.0000E+00  0.0000E+00  0.0000E+00  0.0000E+00
     -6.912  0.0000E+00  0.0000E+00  0.0000E+00  0.0000E+00  0.0000E+00  0.0000E+00  0.0000E+00  0.0000E+00  0.0000E+00
     -6.826  0.0000E+00  0.0000E+00  0.0000E+00  0.0000E+00  0.0000E+00  0.0000E+00  0.0000E+00  0.0000E+00  0.0000E+00
     -6.740  0.0000E+00  0.0000E+00  0.0000E+00  0.0000E+00  0.0000E+00  0.0000E+00  0.0000E+00  0.0000E+00  0.0000E+00
     -6.655  0.0000E+00  0.0000E+00  0.0000E+00  0.0000E+00  0.0000E+00  0.0000E+00  0.0000E+00  0.0000E+00  0.0000E+00
     -6.569  0.0000E+00  0.0000E+00  0.0000E+00  0.0000E+00  0.0000E+00  0.0000E+00  0.0000E+00  0.0000E+00  0.0000E+00
     -6.483  0.0000E+00  0.0000E+00  0.0000E+00  0.0000E+00  0.0000E+00  0.0000E+00  0.0000E+00  0.0000E+00  0.0000E+00
     -6.398  0.0000E+00  0.0000E+00  0.0000E+00  0.0000E+00  0.0000E+00  0.0000E+00  0.0000E+00  0.0000E+00  0.0000E+00
     -6.312  0.0000E+00  0.0000E+00  0.0000E+00  0.0000E+00  0.0000E+00  0.0000E+00  0.0000E+00  0.0000E+00  0.0000E+00
     -6.226  0.0000E+00  0.0000E+00  0.0000E+00  0.0000E+00  0.0000E+00  0.0000E+00  0.0000E+00  0.0000E+00  0.0000E+00
     -6.141  0.1659E-01  0.1256E-04  0.7076E-05  0.3196E-04  0.0000E+00  0.0000E+00  0.0000E+00  0.0000E+00  0.0000E+00
     -6.055  0.2807E-01  0.3121E-04  0.2875E-04  0.1413E-03  0.0000E+00  0.0000E+00  0.0000E+00  0.0000E+00  0.0000E+00
     -5.969  0.3584E-01  0.7867E-04  0.5667E-04  0.2745E-03  0.0000E+00  0.0000E+00  0.0000E+00  0.0000E+00  0.0000E+00
     -5.884  0.4202E-01  0.1405E-03  0.8904E-04  0.4364E-03  0.0000E+00  0.0000E+00  0.0000E+00  0.0000E+00  0.0000E+00
     -5.798  0.4746E-01  0.2079E-03  0.1306E-03  0.6232E-03  0.0000E+00  0.0000E+00  0.0000E+00  0.0000E+00  0.0000E+00
     -5.712  0.5258E-01  0.2836E-03  0.1749E-03  0.8305E-03  0.0000E+00  0.0000E+00  0.0000E+00  0.0000E+00  0.0000E+00
     -5.627  0.5761E-01  0.3580E-03  0.2225E-03  0.1057E-02  0.0000E+00  0.0000E+00  0.0000E+00  0.0000E+00  0.0000E+00
     -5.541  0.6184E-01  0.4821E-03  0.2773E-03  0.1273E-02  0.0000E+00  0.0000E+00  0.0000E+00  0.0000E+00  0.0000E+00
     -5.455  0.6624E-01  0.5586E-03  0.3335E-03  0.1550E-02  0.0000E+00  0.0000E+00  0.0000E+00  0.0000E+00  0.0000E+00
     -5.370  0.7033E-01  0.6795E-03  0.3960E-03  0.1807E-02  0.0000E+00  0.0000E+00  0.0000E+00  0.0000E+00  0.0000E+00
     -5.284  0.7443E-01  0.7689E-03  0.4626E-03  0.2113E-02  0.0000E+00  0.0000E+00  0.0000E+00  0.0000E+00  0.0000E+00
     -5.198  0.7836E-01  0.9144E-03  0.5310E-03  0.2390E-02  0.0000E+00  0.0000E+00  0.0000E+00  0.0000E+00  0.0000E+00
     -5.113  0.8238E-01  0.1036E-02  0.6082E-03  0.2700E-02  0.0000E+00  0.0000E+00  0.0000E+00  0.0000E+00  0.0000E+00
     -5.027  0.8627E-01  0.1204E-02  0.6835E-03  0.2999E-02  0.0000E+00  0.0000E+00  0.0000E+00  0.0000E+00  0.0000E+00
     -4.941  0.9038E-01  0.1331E-02  0.7690E-03  0.3337E-02  0.0000E+00  0.0000E+00  0.0000E+00  0.0000E+00  0.0000E+00
     -4.856  0.9430E-01  0.1488E-02  0.8583E-03  0.3689E-02  0.0000E+00  0.0000E+00  0.0000E+00  0.0000E+00  0.0000E+00
     -4.770  0.9853E-01  0.1653E-02  0.9484E-03  0.4038E-02  0.0000E+00  0.0000E+00  0.0000E+00  0.0000E+00  0.0000E+00
     -4.684  0.1028E+00  0.1802E-02  0.1051E-02  0.4435E-02  0.0000E+00  0.0000E+00  0.0000E+00  0.0000E+00  0.0000E+00
     -4.599  0.1073E+00  0.2006E-02  0.1154E-02  0.4801E-02  0.0000E+00  0.0000E+00  0.0000E+00  0.0000E+00  0.0000E+00
     -4.513  0.1121E+00  0.2189E-02  0.1264E-02  0.5204E-02  0.0000E+00  0.0000E+00  0.0000E+00  0.0000E+00  0.0000E+00
     -4.427  0.1173E+00  0.2400E-02  0.1387E-02  0.5632E-02  0.0000E+00  0.0000E+00  0.0000E+00  0.0000E+00  0.0000E+00
     -4.342  0.1230E+00  0.2671E-02  0.1511E-02  0.6026E-02  0.0000E+00  0.0000E+00  0.0000E+00  0.0000E+00  0.0000E+00
     -4.256  0.1295E+00  0.2897E-02  0.1653E-02  0.6524E-02  0.0000E+00  0.0000E+00  0.0000E+00  0.0000E+00  0.0000E+00
     -4.170  0.1372E+00  0.3178E-02  0.1809E-02  0.7049E-02  0.0000E+00  0.0000E+00  0.0000E+00  0.0000E+00  0.0000E+00
     -4.085  0.1468E+00  0.3524E-02  0.1977E-02  0.7605E-02  0.0000E+00  0.0000E+00  0.0000E+00  0.0000E+00  0.0000E+00
     -3.999  0.1605E+00  0.3902E-02  0.2199E-02  0.8402E-02  0.0000E+00  0.0000E+00  0.0000E+00  0.0000E+00  0.0000E+00
     -3.913  0.1937E+00  0.4637E-02  0.2560E-02  0.9915E-02  0.0000E+00  0.0000E+00  0.0000E+00  0.0000E+00  0.0000E+00
     -3.828  0.1886E+00  0.4907E-02  0.2673E-02  0.9851E-02  0.0000E+00  0.0000E+00  0.0000E+00  0.0000E+00  0.0000E+00
     -3.742  0.1838E+00  0.5196E-02  0.2809E-02  0.9827E-02  0.0000E+00  0.0000E+00  0.0000E+00  0.0000E+00  0.0000E+00
     -3.656  0.1765E+00  0.5374E-02  0.2900E-02  0.9638E-02  0.0000E+00  0.0000E+00  0.0000E+00  0.0000E+00  0.0000E+00
     -3.570  0.1700E+00  0.5571E-02  0.3017E-02  0.9480E-02  0.0000E+00  0.0000E+00  0.0000E+00  0.0000E+00  0.0000E+00
     -3.485  0.1635E+00  0.5674E-02  0.3112E-02  0.9327E-02  0.0000E+00  0.0000E+00  0.0000E+00  0.0000E+00  0.0000E+00
     -3.399  0.1572E+00  0.5752E-02  0.3205E-02  0.9167E-02  0.0000E+00  0.0000E+00  0.0000E+00  0.0000E+00  0.0000E+00
     -3.313  0.1501E+00  0.5801E-02  0.3301E-02  0.8947E-02  0.0000E+00  0.0000E+00  0.0000E+00  0.0000E+00  0.0000E+00
     -3.228  0.1438E+00  0.5789E-02  0.3383E-02  0.8774E-02  0.0000E+00  0.0000E+00  0.0000E+00  0.0000E+00  0.0000E+00
     -3.142  0.1368E+00  0.5736E-02  0.3462E-02  0.8556E-02  0.0000E+00  0.0000E+00  0.0000E+00  0.0000E+00  0.0000E+00
     -3.056  0.1301E+00  0.5650E-02  0.3534E-02  0.8329E-02  0.0000E+00  0.0000E+00  0.0000E+00  0.0000E+00  0.0000E+00
     -2.971  0.1231E+00  0.5546E-02  0.3588E-02  0.8051E-02  0.0000E+00  0.0000E+00  0.0000E+00  0.0000E+00  0.0000E+00
     -2.885  0.1162E+00  0.5374E-02  0.3643E-02  0.7795E-02  0.0000E+00  0.0000E+00  0.0000E+00  0.0000E+00  0.0000E+00
     -2.799  0.1088E+00  0.5180E-02  0.3668E-02  0.7474E-02  0.0000E+00  0.0000E+00  0.0000E+00  0.0000E+00  0.0000E+00
     -2.714  0.1014E+00  0.4918E-02  0.3682E-02  0.7155E-02  0.0000E+00  0.0000E+00  0.0000E+00  0.0000E+00  0.0000E+00
     -2.628  0.9361E-01  0.4631E-02  0.3670E-02  0.6778E-02  0.0000E+00  0.0000E+00  0.0000E+00  0.0000E+00  0.0000E+00
     -2.542  0.8546E-01  0.4259E-02  0.3613E-02  0.6385E-02  0.0000E+00  0.0000E+00  0.0000E+00  0.0000E+00  0.0000E+00
     -2.457  0.7642E-01  0.3827E-02  0.3533E-02  0.5924E-02  0.0000E+00  0.0000E+00  0.0000E+00  0.0000E+00  0.0000E+00
     -2.371  0.6848E-01  0.3396E-02  0.3426E-02  0.5520E-02  0.0000E+00  0.0000E+00  0.0000E+00  0.0000E+00  0.0000E+00
     -2.285  0.6221E-01  0.3051E-02  0.3481E-02  0.5285E-02  0.0000E+00  0.0000E+00  0.0000E+00  0.0000E+00  0.0000E+00
     -2.200  0.3374E-01  0.1716E-02  0.1996E-02  0.2871E-02  0.0000E+00  0.0000E+00  0.0000E+00  0.0000E+00  0.0000E+00
     -2.114  0.7963E-02  0.4929E-03  0.4669E-03  0.5556E-03  0.0000E+00  0.0000E+00  0.0000E+00  0.0000E+00  0.0000E+00
     -2.028  0.5391E-02  0.2316E-03  0.4195E-03  0.6198E-03  0.0000E+00  0.0000E+00  0.0000E+00  0.0000E+00  0.0000E+00
     -1.943  0.1887E-01  0.8908E-03  0.1449E-02  0.2114E-02  0.0000E+00  0.0000E+00  0.0000E+00  0.0000E+00  0.0000E+00
     -1.857  0.3766E-01  0.2089E-02  0.2820E-02  0.3966E-02  0.0000E+00  0.0000E+00  0.0000E+00  0.0000E+00  0.0000E+00
     -1.771  0.4902E-01  0.3002E-02  0.3657E-02  0.5135E-02  0.0000E+00  0.0000E+00  0.0000E+00  0.0000E+00  0.0000E+00
     -1.686  0.5978E-01  0.3853E-02  0.4474E-02  0.6471E-02  0.0000E+00  0.0000E+00  0.0000E+00  0.0000E+00  0.0000E+00
     -1.600  0.6962E-01  0.4698E-02  0.5236E-02  0.7940E-02  0.0000E+00  0.0000E+00  0.0000E+00  0.0000E+00  0.0000E+00
     -1.514  0.7832E-01  0.5451E-02  0.5913E-02  0.9421E-02  0.0000E+00  0.0000E+00  0.0000E+00  0.0000E+00  0.0000E+00
     -1.429  0.8889E-01  0.6424E-02  0.6750E-02  0.1147E-01  0.0000E+00  0.0000E+00  0.0000E+00  0.0000E+00  0.0000E+00
     -1.343  0.9942E-01  0.7392E-02  0.7597E-02  0.1389E-01  0.0000E+00  0.0000E+00  0.0000E+00  0.0000E+00  0.0000E+00
     -1.257  0.1125E+00  0.8668E-02  0.8672E-02  0.1733E-01  0.0000E+00  0.0000E+00  0.0000E+00  0.0000E+00  0.0000E+00
     -1.172  0.1717E+00  0.1781E-01  0.1418E-01  0.4507E-01  0.0000E+00  0.0000E+00  0.0000E+00  0.0000E+00  0.0000E+00
     -1.086  0.3898E+00  0.4307E-01  0.3303E-01  0.1259E+00  0.0000E+00  0.0000E+00  0.0000E+00  0.0000E+00  0.0000E+00
     -1.000  0.1862E+00  0.2033E-01  0.1562E-01  0.5460E-01  0.0000E+00  0.0000E+00  0.0000E+00  0.0000E+00  0.0000E+00
     -0.915  0.1519E+00  0.1666E-01  0.1274E-01  0.4380E-01  0.0000E+00  0.0000E+00  0.0000E+00  0.0000E+00  0.0000E+00
     -0.829  0.1327E+00  0.1477E-01  0.1117E-01  0.3815E-01  0.0000E+00  0.0000E+00  0.0000E+00  0.0000E+00  0.0000E+00
     -0.743  0.1185E+00  0.1340E-01  0.1003E-01  0.3438E-01  0.0000E+00  0.0000E+00  0.0000E+00  0.0000E+00  0.0000E+00
     -0.658  0.1088E+00  0.1248E-01  0.9264E-02  0.3183E-01  0.0000E+00  0.0000E+00  0.0000E+00  0.0000E+00  0.0000E+00
     -0.572  0.1003E+00  0.1174E-01  0.8600E-02  0.2971E-01  0.0000E+00  0.0000E+00  0.0000E+00  0.0000E+00  0.0000E+00
     -0.486  0.9272E-01  0.1108E-01  0.8019E-02  0.2792E-01  0.0000E+00  0.0000E+00  0.0000E+00  0.0000E+00  0.0000E+00
     -0.401  0.8690E-01  0.1055E-01  0.7579E-02  0.2659E-01  0.0000E+00  0.0000E+00  0.0000E+00  0.0000E+00  0.0000E+00
     -0.315  0.8127E-01  0.1003E-01  0.7155E-02  0.2537E-01  0.0000E+00  0.0000E+00  0.0000E+00  0.0000E+00  0.0000E+00
     -0.229  0.7596E-01  0.9557E-02  0.6756E-02  0.2421E-01  0.0000E+00  0.0000E+00  0.0000E+00  0.0000E+00  0.0000E+00
     -0.144  0.7188E-01  0.9233E-02  0.6453E-02  0.2329E-01  0.0000E+00  0.0000E+00  0.0000E+00  0.0000E+00  0.0000E+00
     -0.058  0.6773E-01  0.8856E-02  0.6144E-02  0.2241E-01  0.0000E+00  0.0000E+00  0.0000E+00  0.0000E+00  0.0000E+00
      0.028  0.6342E-01  0.8444E-02  0.5821E-02  0.2151E-01  0.0000E+00  0.0000E+00  0.0000E+00  0.0000E+00  0.0000E+00
      0.113  0.6031E-01  0.8214E-02  0.5590E-02  0.2081E-01  0.0000E+00  0.0000E+00  0.0000E+00  0.0000E+00  0.0000E+00
      0.199  0.5714E-01  0.7934E-02  0.5356E-02  0.2013E-01  0.0000E+00  0.0000E+00  0.0000E+00  0.0000E+00  0.0000E+00
      0.285  0.5369E-01  0.7595E-02  0.5098E-02  0.1939E-01  0.0000E+00  0.0000E+00  0.0000E+00  0.0000E+00  0.0000E+00
      0.370  0.5091E-01  0.7369E-02  0.4889E-02  0.1876E-01  0.0000E+00  0.0000E+00  0.0000E+00  0.0000E+00  0.0000E+00
      0.456  0.4846E-01  0.7191E-02  0.4704E-02  0.1819E-01  0.0000E+00  0.0000E+00  0.0000E+00  0.0000E+00  0.0000E+00
      0.542  0.4585E-01  0.6893E-02  0.4506E-02  0.1766E-01  0.0000E+00  0.0000E+00  0.0000E+00  0.0000E+00  0.0000E+00
      0.627  0.4303E-01  0.6557E-02  0.4290E-02  0.1705E-01  0.0000E+00  0.0000E+00  0.0000E+00  0.0000E+00  0.0000E+00
      0.713  0.4109E-01  0.6401E-02  0.4144E-02  0.1659E-01  0.0000E+00  0.0000E+00  0.0000E+00  0.0000E+00  0.0000E+00
      0.799  0.3907E-01  0.6223E-02  0.3987E-02  0.1611E-01  0.0000E+00  0.0000E+00  0.0000E+00  0.0000E+00  0.0000E+00
      0.884  0.3689E-01  0.5960E-02  0.3816E-02  0.1563E-01  0.0000E+00  0.0000E+00  0.0000E+00  0.0000E+00  0.0000E+00
      0.970  0.3470E-01  0.5706E-02  0.3642E-02  0.1510E-01  0.0000E+00  0.0000E+00  0.0000E+00  0.0000E+00  0.0000E+00
      1.056  0.3314E-01  0.5606E-02  0.3520E-02  0.1467E-01  0.0000E+00  0.0000E+00  0.0000E+00  0.0000E+00  0.0000E+00
      1.141  0.3147E-01  0.5442E-02  0.3389E-02  0.1425E-01  0.0000E+00  0.0000E+00  0.0000E+00  0.0000E+00  0.0000E+00
      1.227  0.2969E-01  0.5215E-02  0.3245E-02  0.1381E-01  0.0000E+00  0.0000E+00  0.0000E+00  0.0000E+00  0.0000E+00
      1.313  0.2790E-01  0.5635E-02  0.3240E-02  0.1372E-01  0.0000E+00  0.0000E+00  0.0000E+00  0.0000E+00  0.0000E+00
      1.398  0.2854E-01  0.4034E-01  0.1007E-01  0.3304E-01  0.0000E+00  0.0000E+00  0.0000E+00  0.0000E+00  0.0000E+00
      1.484  0.2926E-01  0.6119E-01  0.1270E-01  0.4471E-01  0.0000E+00  0.0000E+00  0.0000E+00  0.0000E+00  0.0000E+00
      1.570  0.3113E-01  0.8951E-01  0.1405E-01  0.6621E-01  0.0000E+00  0.0000E+00  0.0000E+00  0.0000E+00  0.0000E+00
      1.655  0.3200E-01  0.9612E-01  0.1348E-01  0.7348E-01  0.0000E+00  0.0000E+00  0.0000E+00  0.0000E+00  0.0000E+00
      1.741  0.3232E-01  0.9199E-01  0.1318E-01  0.6790E-01  0.0000E+00  0.0000E+00  0.0000E+00  0.0000E+00  0.0000E+00
      1.827  0.3239E-01  0.8824E-01  0.1234E-01  0.6140E-01  0.0000E+00  0.0000E+00  0.0000E+00  0.0000E+00  0.0000E+00
      1.912  0.3210E-01  0.8533E-01  0.1194E-01  0.5681E-01  0.0000E+00  0.0000E+00  0.0000E+00  0.0000E+00  0.0000E+00
      1.998  0.3151E-01  0.8495E-01  0.1434E-01  0.5479E-01  0.0000E+00  0.0000E+00  0.0000E+00  0.0000E+00  0.0000E+00
      2.084  0.3109E-01  0.8450E-01  0.1777E-01  0.5302E-01  0.0000E+00  0.0000E+00  0.0000E+00  0.0000E+00  0.0000E+00
      2.169  0.3066E-01  0.8497E-01  0.2213E-01  0.5175E-01  0.0000E+00  0.0000E+00  0.0000E+00  0.0000E+00  0.0000E+00
      2.255  0.3012E-01  0.8541E-01  0.2733E-01  0.5132E-01  0.0000E+00  0.0000E+00  0.0000E+00  0.0000E+00  0.0000E+00
      2.341  0.2941E-01  0.8545E-01  0.3236E-01  0.5093E-01  0.0000E+00  0.0000E+00  0.0000E+00  0.0000E+00  0.0000E+00
      2.426  0.2862E-01  0.8939E-01  0.3935E-01  0.5325E-01  0.0000E+00  0.0000E+00  0.0000E+00  0.0000E+00  0.0000E+00
      2.512  0.2788E-01  0.8709E-01  0.4681E-01  0.5155E-01  0.0000E+00  0.0000E+00  0.0000E+00  0.0000E+00  0.0000E+00
      2.598  0.2719E-01  0.8690E-01  0.5465E-01  0.5188E-01  0.0000E+00  0.0000E+00  0.0000E+00  0.0000E+00  0.0000E+00
      2.683  0.2645E-01  0.9074E-01  0.6798E-01  0.5529E-01  0.0000E+00  0.0000E+00  0.0000E+00  0.0000E+00  0.0000E+00
      2.769  0.2539E-01  0.9353E-01  0.8435E-01  0.5959E-01  0.0000E+00  0.0000E+00  0.0000E+00  0.0000E+00  0.0000E+00
      2.855  0.2428E-01  0.8980E-01  0.1161E+00  0.6637E-01  0.0000E+00  0.0000E+00  0.0000E+00  0.0000E+00  0.0000E+00
      2.940  0.2345E-01  0.8418E-01  0.1203E+00  0.6454E-01  0.0000E+00  0.0000E+00  0.0000E+00  0.0000E+00  0.0000E+00
      3.026  0.2252E-01  0.8177E-01  0.1233E+00  0.6312E-01  0.0000E+00  0.0000E+00  0.0000E+00  0.0000E+00  0.0000E+00
      3.112  0.2143E-01  0.7853E-01  0.1255E+00  0.6117E-01  0.0000E+00  0.0000E+00  0.0000E+00  0.0000E+00  0.0000E+00
      3.197  0.2028E-01  0.7611E-01  0.1267E+00  0.5971E-01  0.0000E+00  0.0000E+00  0.0000E+00  0.0000E+00  0.0000E+00
      3.283  0.1929E-01  0.7390E-01  0.1282E+00  0.5818E-01  0.0000E+00  0.0000E+00  0.0000E+00  0.0000E+00  0.0000E+00
      3.369  0.1844E-01  0.7138E-01  0.1294E+00  0.5672E-01  0.0000E+00  0.0000E+00  0.0000E+00  0.0000E+00  0.0000E+00
      3.454  0.1751E-01  0.6995E-01  0.1298E+00  0.5556E-01  0.0000E+00  0.0000E+00  0.0000E+00  0.0000E+00  0.0000E+00
      3.540  0.1645E-01  0.6788E-01  0.1317E+00  0.5420E-01  0.0000E+00  0.0000E+00  0.0000E+00  0.0000E+00  0.0000E+00
      3.626  0.1536E-01  0.6565E-01  0.1317E+00  0.5273E-01  0.0000E+00  0.0000E+00  0.0000E+00  0.0000E+00  0.0000E+00
      3.711  0.1447E-01  0.6413E-01  0.1335E+00  0.5164E-01  0.0000E+00  0.0000E+00  0.0000E+00  0.0000E+00  0.0000E+00
      3.797  0.1361E-01  0.6265E-01  0.1338E+00  0.5036E-01  0.0000E+00  0.0000E+00  0.0000E+00  0.0000E+00  0.0000E+00
      3.883  0.1262E-01  0.6072E-01  0.1351E+00  0.4879E-01  0.0000E+00  0.0000E+00  0.0000E+00  0.0000E+00  0.0000E+00
      3.968  0.1160E-01  0.5865E-01  0.1359E+00  0.4787E-01  0.0000E+00  0.0000E+00  0.0000E+00  0.0000E+00  0.0000E+00
      4.054  0.1046E-01  0.5593E-01  0.1382E+00  0.4718E-01  0.0000E+00  0.0000E+00  0.0000E+00  0.0000E+00  0.0000E+00
      4.140  0.9408E-02  0.5405E-01  0.1398E+00  0.4653E-01  0.0000E+00  0.0000E+00  0.0000E+00  0.0000E+00  0.0000E+00
      4.226  0.8526E-02  0.5149E-01  0.1419E+00  0.4538E-01  0.0000E+00  0.0000E+00  0.0000E+00  0.0000E+00  0.0000E+00
      4.311  0.7682E-02  0.4978E-01  0.1427E+00  0.4478E-01  0.0000E+00  0.0000E+00  0.0000E+00  0.0000E+00  0.0000E+00
      4.397  0.6768E-02  0.5010E-01  0.1416E+00  0.4451E-01  0.0000E+00  0.0000E+00  0.0000E+00  0.0000E+00  0.0000E+00
      4.483  0.5947E-02  0.4381E-01  0.1088E+00  0.3475E-01  0.0000E+00  0.0000E+00  0.0000E+00  0.0000E+00  0.0000E+00
      4.568  0.5382E-02  0.3919E-01  0.9023E-01  0.2930E-01  0.0000E+00  0.0000E+00  0.0000E+00  0.0000E+00  0.0000E+00
      4.654  0.4740E-02  0.3495E-01  0.7829E-01  0.2584E-01  0.0000E+00  0.0000E+00  0.0000E+00  0.0000E+00  0.0000E+00
      4.740  0.4100E-02  0.3089E-01  0.6866E-01  0.2294E-01  0.0000E+00  0.0000E+00  0.0000E+00  0.0000E+00  0.0000E+00
      4.825  0.3428E-02  0.2778E-01  0.6062E-01  0.2043E-01  0.0000E+00  0.0000E+00  0.0000E+00  0.0000E+00  0.0000E+00
      4.911  0.2837E-02  0.2531E-01  0.5350E-01  0.1792E-01  0.0000E+00  0.0000E+00  0.0000E+00  0.0000E+00  0.0000E+00
      4.997  0.2391E-02  0.2293E-01  0.4686E-01  0.1562E-01  0.0000E+00  0.0000E+00  0.0000E+00  0.0000E+00  0.0000E+00
      5.082  0.1934E-02  0.2048E-01  0.4091E-01  0.1354E-01  0.0000E+00  0.0000E+00  0.0000E+00  0.0000E+00  0.0000E+00
      5.168  0.1488E-02  0.1820E-01  0.3557E-01  0.1195E-01  0.0000E+00  0.0000E+00  0.0000E+00  0.0000E+00  0.0000E+00