    2    2    1    1
  0.2043979E+02  0.3866700E-09  0.3866700E-09  0.3866700E-09  0.5000000E-15
  1.000000000000000E-004
  CAR 
 unknown system                          
    8  816    8
 
  0.0000000E+00  0.0000000E+00  0.0000000E+00  0.3356718E-04
   1       -6.196687
   2        5.619841
   3        5.619841
   4        5.619841
   5        8.176459
   6        8.176459
   7        8.176459
   8        8.756060
 
  0.3225806E-01  0.0000000E+00 -0.3469447E-17  0.2685375E-03
   1       -6.183283
   2        5.460346
   3        5.596831
   4        5.596831
   5        8.208820
   6        8.210093
   7        8.210093
   8        8.859649
 
  0.6451613E-01  0.0000000E+00 -0.6938894E-17  0.2685375E-03
   1       -6.143072
   2        5.058937
   3        5.532229
   4        5.532229
   5        8.214523
   6        8.305159
   7        8.305159
   8        9.187924
 
  0.9677419E-01  0.6938894E-17 -0.1387779E-16  0.2685375E-03
   1       -6.076230
   2        4.533852
   3        5.436686
   4        5.436686
   5        8.151913
   6        8.446428
   7        8.446428
   8        9.672419
 
  0.1290323E+00  0.0000000E+00 -0.1387779E-16  0.2685375E-03
   1       -5.983133
   2        3.954898
   3        5.322308
   4        5.322308
   5        8.049322
   6        8.613685
   7        8.613685
   8       10.225497
 
  0.1612903E+00  0.1387779E-16 -0.2081668E-16  0.2685375E-03
   1       -5.864245
   2        3.356539
   3        5.199552
   4        5.199552
   5        7.927517
   6        8.784790
   7        8.784790
   8       10.803131
 
  0.1935484E+00  0.1387779E-16 -0.2775558E-16  0.2685375E-03
   1       -5.720299
   2        2.756591
   3        5.076236
   4        5.076236
   5        7.798773
   6        8.937802
   7        8.937802
   8       11.384538
 
  0.2258065E+00  0.1387779E-16 -0.2775558E-16  0.2685375E-03
   1       -5.552403
   2        2.165667
   3        4.957799
   4        4.957799
   5        7.671369
   6        9.053817
   7        9.053817
   8       11.957351
 
  0.2580645E+00  0.0000000E+00 -0.2775558E-16  0.2685375E-03
   1       -5.362085
   2        1.591181
   3        4.847937
   4        4.847937
   5        7.550589
   6        9.122659
   7        9.122659
   8       12.506795
 
  0.2903226E+00  0.0000000E+00 -0.1387779E-16  0.2685375E-03
   1       -5.151664
   2        1.039267
   3        4.749060
   4        4.749060
   5        7.440131
   6        9.145498
   7        9.145498
   8       12.997514
 
  0.3225806E+00  0.2775558E-16 -0.4163336E-16  0.2685375E-03
   1       -4.924743
   2        0.516146
   3        4.662754
   4        4.662754
   5        7.342542
   6        9.132814
   7        9.132814
   8       13.348214
 
  0.3548387E+00  0.0000000E+00 -0.8326673E-16  0.2685375E-03
   1       -4.687019
   2        0.029350
   3        4.589969
   4        4.589969
   5        7.259449
   6        9.098831
   7        9.098831
   8       13.460161
 
  0.3870968E+00  0.2775558E-16 -0.5551115E-16  0.2685375E-03
   1       -4.447912
   2       -0.410338
   3        4.531310
   4        4.531310
   5        7.191989
   6        9.056864
   7        9.056864
   8       13.444358
 
  0.4193548E+00  0.0000000E+00 -0.8326673E-16  0.2685375E-03
   1       -4.223365
   2       -0.786081
   3        4.487111
   4        4.487111
   5        7.140916
   6        9.017062
   7        9.017062
   8       13.394335
 
  0.4516129E+00  0.2775558E-16 -0.5551115E-16  0.2685375E-03
   1       -4.039325
   2       -1.071262
   3        4.457594
   4        4.457594
   5        7.106626
   6        8.987023
   7        8.987023
   8       13.349991
 
  0.4838710E+00  0.2775558E-16 -0.8326673E-16  0.2685375E-03
   1       -3.931774
   2       -1.229469
   3        4.442813
   4        4.442813
   5        7.089399
   6        8.970890
   7        8.970890
   8       13.325449
 
  0.3225806E-01  0.3225806E-01 -0.3469447E-17  0.2014031E-03
   1       -6.178808
   2        5.493467
   3        5.545097
   4        5.545097
   5        8.132374
   6        8.273206
   7        8.273206
   8        8.879494
 
  0.6451613E-01  0.3225806E-01 -0.1387779E-16  0.8056124E-03
   1       -6.147511
   2        5.180275
   3        5.456777
   4        5.523395
   5        8.126067
   6        8.341964
   7        8.393404
   8        9.114997
 
  0.9677419E-01  0.3225806E-01 -0.2081668E-16  0.8056124E-03
   1       -6.089526
   2        4.695773
   3        5.343900
   4        5.470843
   5        8.163956
   6        8.351527
   7        8.554488
   8        9.545278
 
  0.1290323E+00  0.3225806E-01 -0.6938894E-17  0.8056124E-03
   1       -6.005154
   2        4.137389
   3        5.218214
   4        5.383028
   5        8.144169
   6        8.415708
   7        8.737210
   8       10.066354
 
  0.1612903E+00  0.3225806E-01 -0.2775558E-16  0.8056124E-03
   1       -5.894817
   2        3.548526
   3        5.089104
   4        5.272666
   5        8.050292
   6        8.555441
   7        8.921008
   8       10.612681
 
  0.1935484E+00  0.3225806E-01 -0.4163336E-16  0.8056124E-03
   1       -5.759155
   2        2.951673
   3        4.963343
   4        5.151001
   5        7.932115
   6        8.710612
   7        9.085088
   8       11.143467
 
  0.2258065E+00  0.3225806E-01 -0.1387779E-16  0.8056124E-03
   1       -5.599127
   2        2.359725
   3        4.845647
   4        5.026475
   5        7.808690
   6        8.847647
   7        9.210579
   8       11.614176
 
  0.2580645E+00  0.3225806E-01 -0.2775558E-16  0.8056124E-03
   1       -5.416106
   2        1.781200
   3        4.739154
   4        4.904951
   5        7.688498
   6        8.946387
   7        9.285804
   8       11.986646
 
  0.2903226E+00  0.3225806E-01 -0.2775558E-16  0.8056124E-03
   1       -5.212093
   2        1.222713
   3        4.645917
   4        4.790362
   5        7.576543
   6        9.000084
   7        9.310061
   8       12.304529
 
  0.3225806E+00  0.3225806E-01 -0.6938894E-16  0.8056124E-03
   1       -4.990191
   2        0.690485
   3        4.567220
   4        4.685337
   5        7.476029
   6        9.014550
   7        9.292646
   8       12.637263
 
  0.3548387E+00  0.3225806E-01 -0.5551115E-16  0.8056124E-03
   1       -4.755263
   2        0.191501
   3        4.503853
   4        4.591647
   5        7.389050
   6        9.002978
   7        9.247943
   8       12.989317
 
  0.3870968E+00  0.3225806E-01 -0.8326673E-16  0.8056124E-03
   1       -4.515227
   2       -0.264723
   3        4.456191
   4        4.510483
   5        7.316983
   6        8.979595
   7        9.190207
   8       13.277958
 
  0.4193548E+00  0.3225806E-01 -0.1110223E-15  0.8056124E-03
   1       -4.283456
   2       -0.663737
   3        4.424358
   4        4.442701
   5        7.260837
   6        8.956184
   7        9.130830
   8       13.387248
 
  0.4516129E+00  0.3225806E-01 -0.2775558E-16  0.8056124E-03
   1       -4.082230
   2       -0.982532
   3        4.388927
   4        4.408279
   5        7.220992
   6        8.940854
   7        9.078124
   8       13.391174
 
  0.4838710E+00  0.3225806E-01 -0.2775558E-16  0.8056124E-03
   1       -3.944861
   2       -1.187222
   3        4.349658
   4        4.407780
   5        7.197957
   6        8.939020
   7        9.037524
   8       13.377716
 
 -0.4838710E+00  0.3225806E-01  0.5551115E-16  0.8056124E-03
   1       -3.907036
   2       -1.241872
   3        4.325303
   4        4.422565
   5        7.191865
   6        8.953204
   7        9.011943
   8       13.374578
 
 -0.4516129E+00  0.3225806E-01  0.5551115E-16  0.8056124E-03
   1       -3.981211
   2       -1.134001
   3        4.316237
   4        4.452293
   5        7.202818
   6        8.983848
   7        9.002537
   8       13.387790
 
 -0.4193548E+00  0.3225806E-01  0.8326673E-16  0.8056124E-03
   1       -4.144133
   2       -0.886934
   3        4.322780
   4        4.496561
   5        7.230732
   6        9.008012
   7        9.029412
   8       13.412051
 
 -0.3870968E+00  0.3225806E-01  0.8326673E-16  0.8056124E-03
   1       -4.358714
   2       -0.538121
   3        4.345185
   4        4.554920
   5        7.275371
   6        9.024906
   7        9.086171
   8       13.425374
 
 -0.3548387E+00  0.3225806E-01  0.6938894E-16  0.8056124E-03
   1       -4.595204
   2       -0.117967
   3        4.383620
   4        4.626797
   5        7.336309
   6        9.047190
   7        9.147483
   8       13.367510
 
 -0.3225806E+00  0.3225806E-01  0.5551115E-16  0.8056124E-03
   1       -4.834687
   2        0.353814
   3        4.438119
   4        4.711477
   5        7.413032
   6        9.065704
   7        9.203953
   8       13.159800
 
 -0.2903226E+00  0.3225806E-01  0.1387779E-16  0.8056124E-03
   1       -5.065954
   2        0.864753
   3        4.508493
   4        4.807960
   5        7.504464
   6        9.067979
   7        9.242505
   8       12.819831
 
 -0.2580645E+00  0.3225806E-01  0.2775558E-16  0.8056124E-03
   1       -5.282329
   2        1.406373
   3        4.594324
   4        4.914867
   5        7.609136
   6        9.040251
   7        9.247756
   8       12.427771
 
 -0.2258065E+00  0.3225806E-01  0.0000000E+00  0.8056124E-03
   1       -5.479616
   2        1.972054
   3        4.694733
   4        5.030160
   5        7.724799
   6        8.971494
   7        9.205390
   8       11.997277
 
 -0.1935484E+00  0.3225806E-01  0.1387779E-16  0.8056124E-03
   1       -5.655146
   2        2.555524
   3        4.808328
   4        5.150824
   5        7.848122
   6        8.859421
   7        9.108282
   8       11.515721
 
 -0.1612903E+00  0.3225806E-01  0.3469447E-16  0.8056124E-03
   1       -5.807177
   2        3.149516
   3        4.932924
   4        5.272384
   5        7.974189
   6        8.713563
   7        8.961662
   8       10.991929
 
 -0.1290323E+00  0.3225806E-01  0.2081668E-16  0.8056124E-03
   1       -5.934478
   2        3.743984
   3        5.065310
   4        5.388369
   5        8.095595
   6        8.553113
   7        8.781675
   8       10.447058
 
 -0.9677419E-01  0.3225806E-01  0.6938894E-17  0.8056124E-03
   1       -6.036209
   2        4.322520
   3        5.200955
   4        5.489807
   5        8.200494
   6        8.401233
   7        8.590675
   8        9.907223
 
 -0.6451613E-01  0.3225806E-01  0.5204170E-17  0.8056124E-03
   1       -6.111823
   2        4.853499
   3        5.334991
   4        5.565439
   5        8.267126
   6        8.281279
   7        8.415978
   8        9.412187
 
 -0.3225806E-01  0.3225806E-01  0.4733911E-17  0.4028062E-03
   1       -6.160931
   2        5.267072
   3        5.470386
   4        5.603662
   5        8.213329
   6        8.246096
   7        8.303280
   8        9.035185
 
  0.6451613E-01  0.6451613E-01 -0.6938894E-17  0.2014031E-03
   1       -6.125133
   2        5.163194
   3        5.349574
   4        5.349574
   5        8.008514
   6        8.534783
   7        8.534783
   8        9.192222
 
  0.9677419E-01  0.6451613E-01 -0.1387779E-16  0.8056124E-03
   1       -6.076030
   2        4.791275
   3        5.223045
   4        5.302335
   5        7.971718
   6        8.619991
   7        8.713306
   8        9.498018
 
  0.1290323E+00  0.6451613E-01 -0.2775558E-16  0.8056124E-03
   1       -6.000452
   2        4.277944
   3        5.088165
   4        5.249990
   5        8.004418
   6        8.601715
   7        8.911119
   8        9.952575
 
  0.1612903E+00  0.6451613E-01 -0.5551115E-16  0.8056124E-03
   1       -5.898764
   2        3.714428
   3        4.953327
   4        5.161294
   5        8.061910
   6        8.572447
   7        9.109276
   8       10.429025
 
  0.1935484E+00  0.6451613E-01 -0.4163336E-16  0.8056124E-03
   1       -5.771514
   2        3.131839
   3        4.824641
   4        5.047217
   5        8.078194
   6        8.598113
   7        9.287816
   8       10.842760
 
  0.2258065E+00  0.6451613E-01 -0.2775558E-16  0.8056124E-03
   1       -5.619558
   2        2.546984
   3        4.706271
   4        4.919703
   5        8.027066
   6        8.687132
   7        9.427807
   8       11.140044
 
  0.2580645E+00  0.6451613E-01 -0.1387779E-16  0.8056124E-03
   1       -5.444106
   2        1.970512
   3        4.601019
   4        4.787917
   5        7.939471
   6        8.788556
   7        9.515619
   8       11.359256
 
  0.2903226E+00  0.6451613E-01 -0.1387779E-16  0.8056124E-03
   1       -5.246896
   2        1.410209
   3        4.510790
   4        4.658234
   5        7.841987
   6        8.863313
   7        9.547884
   8       11.589420
 
  0.3225806E+00  0.6451613E-01 -0.5551115E-16  0.8056124E-03
   1       -5.030592
   2        0.872749
   3        4.436778
   4        4.534909
   5        7.747175
   6        8.900365
   7        9.532331
   8       11.879022
 
  0.3548387E+00  0.6451613E-01 -0.8326673E-16  0.8056124E-03
   1       -4.799359
   2        0.364997
   3        4.379648
   4        4.420857
   5        7.661146
   6        8.907163
   7        9.482898
   8       12.232251
 
  0.3870968E+00  0.6451613E-01 -0.8326673E-16  0.8056124E-03
   1       -4.559859
   2       -0.104393
   3        4.318073
   4        4.339720
   5        7.587221
   6        8.897731
   7        9.414493
   8       12.627843
 
  0.4193548E+00  0.6451613E-01 -0.1110223E-15  0.8056124E-03
   1       -4.323277
   2       -0.522846
   3        4.228010
   4        4.317056
   5        7.527474
   6        8.885316
   7        9.339816
   8       13.018080
 
  0.4516129E+00  0.6451613E-01 -0.2775558E-16  0.8056124E-03
   1       -4.108513
   2       -0.870555
   3        4.151771
   4        4.311484
   5        7.483070
   6        8.879486
   7        9.268338
   8       13.312536
 
  0.4838710E+00  0.6451613E-01 -0.8326673E-16  0.8056124E-03
   1       -3.945389
   2       -1.116985
   3        4.090260
   4        4.322661
   5        7.454732
   6        8.886486
   7        9.206225
   8       13.452600
 
 -0.4838710E+00  0.6451613E-01  0.8326673E-16  0.8056124E-03
   1       -3.871190
   2       -1.224462
   3        4.044224
   4        4.350112
   5        7.442909
   6        8.909592
   7        9.157458
   8       13.501821
 
 -0.4516129E+00  0.6451613E-01  0.0000000E+00  0.8056124E-03
   1       -3.909293
   2       -1.169531
   3        4.014351
   4        4.393262
   5        7.447750
   6        8.949826
   7        9.123787
   8       13.519008
 
 -0.4193548E+00  0.6451613E-01  0.9714451E-16  0.8056124E-03
   1       -4.047078
   2       -0.964836
   3        4.001243
   4        4.451381
   5        7.469297
   6        9.006271
   7        9.104979
   8       13.513469
 
 -0.3870968E+00  0.6451613E-01  0.2775558E-16  0.8056124E-03
   1       -4.248633
   2       -0.646596
   3        4.005406
   4        4.523663
   5        7.507314
   6        9.075765
   7        9.098411
   8       13.455062
 
 -0.3548387E+00  0.6451613E-01  0.5551115E-16  0.8056124E-03
   1       -4.480559
   2       -0.248851
   3        4.027293
   4        4.609130
   5        7.561330
   6        9.099111
   7        9.152598
   8       13.283764
 
 -0.3225806E+00  0.6451613E-01  0.6938894E-16  0.8056124E-03
   1       -4.720618
   2        0.205290
   3        4.067235
   4        4.706596
   5        7.630888
   6        9.098833
   7        9.227875
   8       12.985850
 
 -0.2903226E+00  0.6451613E-01  0.2775558E-16  0.8056124E-03
   1       -4.955476
   2        0.701206
   3        4.125453
   4        4.814564
   5        7.714962
   6        9.086259
   7        9.288721
   8       12.618941
 
 -0.2580645E+00  0.6451613E-01  0.4163336E-16  0.8056124E-03
   1       -5.177257
   2        1.229064
   3        4.202020
   4        4.931049
   5        7.812113
   6        9.048080
   7        9.317847
   8       12.244663
 
 -0.2258065E+00  0.6451613E-01  0.2081668E-16  0.8056124E-03
   1       -5.381131
   2        1.781308
   3        4.296868
   4        5.053334
   5        7.920206
   6        8.973230
   7        9.296000
   8       11.884293
 
 -0.1935484E+00  0.6451613E-01  0.1387779E-16  0.8056124E-03
   1       -5.564009
   2        2.350664
   3        4.409856
   4        5.177545
   5        8.036020
   6        8.859059
   7        9.209577
   8       11.525142
 
 -0.1612903E+00  0.6451613E-01  0.2081668E-16  0.8056124E-03
   1       -5.723887
   2        2.928469
   3        4.541000
   4        5.298224
   5        8.154774
   6        8.715340
   7        9.058754
   8       11.137265
 
 -0.1290323E+00  0.6451613E-01  0.1040834E-16  0.8056124E-03
   1       -5.859422
   2        3.501856
   3        4.691232
   4        5.407780
   5        8.269044
   6        8.562098
   7        8.859882
   8       10.703701
 
 -0.9677419E-01  0.6451613E-01  0.1561251E-16  0.8056124E-03
   1       -5.969649
   2        4.047628
   3        4.865242
   4        5.496201
   5        8.366845
   6        8.423706
   7        8.638943
   8       10.239630
 
 -0.6451613E-01  0.6451613E-01  0.9467821E-17  0.4028062E-03
   1       -6.053919
   2        4.519155
   3        5.078028
   4        5.552063
   5        8.323885
   6        8.427214
   7        8.428027
   8        9.786912
 
  0.9677419E-01  0.9677419E-01 -0.1387779E-16  0.2014031E-03
   1       -6.035810
   2        4.713438
   3        5.086362
   4        5.086362
   5        7.825371
   6        8.907526
   7        8.907526
   8        9.573946
 
  0.1290323E+00  0.9677419E-01  0.0000000E+00  0.8056124E-03
   1       -5.969050
   2        4.334848
   3        4.944145
   4        5.006384
   5        7.769641
   6        9.003338
   7        9.120577
   8        9.869653
 
  0.1612903E+00  0.9677419E-01 -0.1387779E-16  0.8056124E-03
   1       -5.876055
   2        3.828208
   3        4.804192
   4        4.937487
   5        7.796190
   6        8.974425
   7        9.334877
   8       10.243205
 
  0.1935484E+00  0.9677419E-01 -0.1387779E-16  0.8056124E-03
   1       -5.757322
   2        3.278163
   3        4.672115
   4        4.836882
   5        7.871651
   6        8.923407
   7        9.531261
   8       10.527132
 
  0.2258065E+00  0.9677419E-01 -0.1387779E-16  0.8056124E-03
   1       -5.613594
   2        2.712997
   3        4.551870
   4        4.711393
   5        7.949813
   6        8.893027
   7        9.690477
   8       10.681811
 
  0.2580645E+00  0.9677419E-01 -0.4163336E-16  0.8056124E-03
   1       -5.445933
   2        2.147815
   3        4.446069
   4        4.572622
   5        7.989763
   6        8.899535
   7        9.796953
   8       10.785629
 
  0.2903226E+00  0.9677419E-01 -0.2775558E-16  0.8056124E-03
   1       -5.255853
   2        1.592709
   3        4.356538
   4        4.429941
   5        7.979804
   6        8.928447
   7        9.844139
   8       10.928339
 
  0.3225806E+00  0.9677419E-01 -0.8326673E-16  0.8056124E-03
   1       -5.045650
   2        1.055542
   3        4.284443
   4        4.289893
   5        7.935774
   6        8.950544
   7        9.837140
   8       11.156235
 
  0.3548387E+00  0.9677419E-01 -0.1110223E-15  0.8056124E-03
   1       -4.818887
   2        0.543660
   3        4.156859
   4        4.230484
   5        7.877753
   6        8.952393
   7        9.789274
   8       11.475548
 
  0.3870968E+00  0.9677419E-01 -0.8326673E-16  0.8056124E-03
   1       -4.581175
   2        0.065323
   3        4.033881
   4        4.194963
   5        7.819371
   6        8.939006
   7        9.715874
   8       11.869982
 
  0.4193548E+00  0.9677419E-01 -0.1110223E-15  0.8056124E-03
   1       -4.341872
   2       -0.368225
   3        3.923140
   4        4.177959
   5        7.768659
   6        8.921837
   7        9.630927
   8       12.315449
 
  0.4516129E+00  0.9677419E-01 -0.5551115E-16  0.8056124E-03
   1       -4.116859
   2       -0.739837
   3        3.826234
   4        4.179322
   5        7.729961
   6        8.910508
   7        9.545009
   8       12.781275
 
  0.4838710E+00  0.9677419E-01 -0.8326673E-16  0.8056124E-03
   1       -3.932181
   2       -1.022553
   3        3.744466
   4        4.198668
   5        7.705784
   6        8.911684
   7        9.465480
   8       13.217344
 
 -0.4838710E+00  0.9677419E-01  0.5551115E-16  0.8056124E-03
   1       -3.824302
   2       -1.179330
   3        3.678910
   4        4.235448
   5        7.697329
   6        8.929172
   7        9.397047
   8       13.536816
 
 -0.4516129E+00  0.9677419E-01  0.2775558E-16  0.8056124E-03
   1       -3.824865
   2       -1.178320
   3        3.630517
   4        4.288943
   5        7.704982
   6        8.964611
   7        9.342153
   8       13.678739
 
 -0.4193548E+00  0.9677419E-01  0.6938894E-16  0.8056124E-03
   1       -3.933653
   2       -1.019753
   3        3.600138
   4        4.358292
   5        7.728768
   6        9.017854
   7        9.301239
   8       13.671268
 
 -0.3870968E+00  0.9677419E-01  0.5551115E-16  0.8056124E-03
   1       -4.118839
   2       -0.735741
   3        3.588527
   4        4.442372
   5        7.768228
   6        9.086708
   7        9.272555
   8       13.522447
 
 -0.3548387E+00  0.9677419E-01  0.5551115E-16  0.8056124E-03
   1       -4.344031
   2       -0.363336
   3        3.596431
   4        4.539891
   5        7.822779
   6        9.166624
   7        9.251798
   8       13.231647
 
 -0.3225806E+00  0.9677419E-01  0.5551115E-16  0.8056124E-03
   1       -4.583323
   2        0.070477
   3        3.624523
   4        4.649227
   5        7.891517
   6        9.231541
   7        9.249490
   8       12.850839
 
 -0.2903226E+00  0.9677419E-01  0.2775558E-16  0.8056124E-03
   1       -4.820912
   2        0.548344
   3        3.673539
   4        4.768340
   5        7.973400
   6        9.201137
   7        9.322671
   8       12.446308
 
 -0.2580645E+00  0.9677419E-01  0.3469447E-16  0.8056124E-03
   1       -5.047497
   2        1.058512
   3        3.744352
   4        4.894622
   5        8.066773
   6        9.147657
   7        9.366930
   8       12.064240
 
 -0.2258065E+00  0.9677419E-01  0.2775558E-16  0.8056124E-03
   1       -5.257498
   2        1.591609
   3        3.838233
   4        5.024541
   5        8.169280
   6        9.060339
   7        9.357832
   8       11.730101
 
 -0.1935484E+00  0.9677419E-01  0.3469447E-16  0.8056124E-03
   1       -5.447372
   2        2.137962
   3        3.957440
   4        5.153307
   5        8.277324
   6        8.937154
   7        9.273589
   8       11.451084
 
 -0.1612903E+00  0.9677419E-01  0.2428613E-16  0.8056124E-03
   1       -5.614823
   2        2.684542
   3        4.106688
   4        5.274365
   5        8.385093
   6        8.788975
   7        9.110463
   8       11.201753
 
 -0.1290323E+00  0.9677419E-01  0.1214306E-16  0.8056124E-03
   1       -5.758337
   2        3.209855
   3        4.296326
   4        5.379058
   5        8.481443
   6        8.637448
   7        8.891643
   8       10.929904
 
 -0.9677419E-01  0.9677419E-01  0.1556374E-16  0.4028062E-03
   1       -5.876860
   2        3.677414
   3        4.545721
   4        5.456678
   5        8.507905
   6        8.523263
   7        8.680996
   8       10.602147
 
  0.1290323E+00  0.1290323E+00 -0.1387779E-16  0.2014031E-03
   1       -5.911070
   2        4.201775
   3        4.796062
   4        4.796062
   5        7.606631
   6        9.349960
   7        9.349960
   8        9.866428
 
  0.1612903E+00  0.1290323E+00 -0.2775558E-16  0.8056124E-03
   1       -5.826785
   2        3.834939
   3        4.651487
   4        4.688968
   5        7.542666
   6        9.436736
   7        9.582807
   8       10.051564
 
  0.1935484E+00  0.1290323E+00 -0.2775558E-16  0.8056124E-03
   1       -5.716622
   2        3.354983
   3        4.515749
   4        4.592554
   5        7.568950
   6        9.384142
   7        9.800626
   8       10.234911
 
  0.2258065E+00  0.1290323E+00 -0.4163336E-16  0.8056124E-03
   1       -5.581239
   2        2.831715
   3        4.392680
   4        4.470363
   5        7.652579
   6        9.324067
   7        9.984165
   8       10.302477
 
  0.2580645E+00  0.1290323E+00 -0.5551115E-16  0.8056124E-03
   1       -5.421543
   2        2.293136
   3        4.284898
   4        4.326562
   5        7.749641
   6        9.292782
   7       10.115449
   8       10.315817
 
  0.2903226E+00  0.1290323E+00 -0.8326673E-16  0.8056124E-03
   1       -5.238868
   2        1.754473
   3        4.171859
   4        4.194194
   5        7.821623
   6        9.292800
   7       10.184459
   8       10.358282
 
  0.3225806E+00  0.1290323E+00 -0.1110223E-15  0.8056124E-03
   1       -5.035195
   2        1.226244
   3        4.015317
   4        4.121798
   5        7.851995
   6        9.298939
   7       10.193047
   8       10.494708
 
  0.3548387E+00  0.1290323E+00 -0.1110223E-15  0.8056124E-03
   1       -4.813564
   2        0.717117
   3        3.863296
   4        4.068416
   5        7.847962
   6        9.285904
   7       10.152985
   8       10.751812
 
  0.3870968E+00  0.1290323E+00 -0.8326673E-16  0.8056124E-03
   1       -4.578714
   2        0.235690
   3        3.720092
   4        4.034447
   5        7.826247
   6        9.253569
   7       10.080323
   8       11.115202
 
  0.4193548E+00  0.1290323E+00 -0.8326673E-16  0.8056124E-03
   1       -4.338463
   2       -0.207494
   3        3.588747
   4        4.020021
   5        7.801664
   6        9.214677
   7        9.990254
   8       11.556299
 
  0.4516129E+00  0.1290323E+00 -0.5551115E-16  0.8056124E-03
   1       -4.106092
   2       -0.597291
   3        3.471460
   4        4.025006
   5        7.783994
   6        9.180255
   7        9.894559
   8       12.049936
 
  0.4838710E+00  0.1290323E+00 -0.8326673E-16  0.8056124E-03
   1       -3.903936
   2       -0.910083
   3        3.369910
   4        4.049050
   5        7.778780
   6        9.157315
   7        9.801793
   8       12.574248
 
 -0.4838710E+00  0.1290323E+00  0.4163336E-16  0.8056124E-03
   1       -3.765966
   2       -1.111041
   3        3.285510
   4        4.091622
   5        7.789004
   6        9.149875
   7        9.717557
   8       13.103419
 
 -0.4516129E+00  0.1290323E+00  0.4163336E-16  0.8056124E-03
   1       -3.728965
   2       -1.162993
   3        3.219459
   4        4.151971
   5        7.815703
   6        9.160079
   7        9.644924
   8       13.584278
 
 -0.4193548E+00  0.1290323E+00  0.6938894E-16  0.8056124E-03
   1       -3.805418
   2       -1.053400
   3        3.172859
   4        4.229149
   5        7.858790
   6        9.188659
   7        9.584939
   8       13.814717
 
 -0.3870968E+00  0.1290323E+00  0.2775558E-16  0.8056124E-03
   1       -3.970741
   2       -0.807168
   3        3.146756
   4        4.321926
   5        7.917207
   6        9.234763
   7        9.536307
   8       13.591459
 
 -0.3548387E+00  0.1290323E+00  0.4163336E-16  0.8056124E-03
   1       -4.186844
   2       -0.463185
   3        3.142231
   4        4.428760
   5        7.989536
   6        9.295399
   7        9.495246
   8       13.194462
 
 -0.3225806E+00  0.1290323E+00  0.4163336E-16  0.8056124E-03
   1       -4.423861
   2       -0.052711
   3        3.160512
   4        4.547733
   5        8.073860
   6        9.364257
   7        9.454819
   8       12.748686
 
 -0.2903226E+00  0.1290323E+00  0.1387779E-16  0.8056124E-03
   1       -4.663203
   2        0.403425
   3        3.203161
   4        4.676371
   5        8.168062
   6        9.404354
   7        9.429562
   8       12.305720
 
 -0.2580645E+00  0.1290323E+00  0.2081668E-16  0.8056124E-03
   1       -4.893918
   2        0.890644
   3        3.272430
   4        4.811497
   5        8.269451
   6        9.331070
   7        9.471396
   8       11.904312
 
 -0.2258065E+00  0.1290323E+00  0.2081668E-16  0.8056124E-03
   1       -5.109494
   2        1.396381
   3        3.372135
   4        4.948853
   5        8.374318
   6        9.224339
   7        9.460309
   8       11.576833
 
 -0.1935484E+00  0.1290323E+00  0.3122502E-16  0.8056124E-03
   1       -5.305926
   2        1.906080
   3        3.509248
   4        5.082821
   5        8.476633
   6        9.083700
   7        9.367409
   8       11.346490
 
 -0.1612903E+00  0.1290323E+00  0.3469447E-16  0.8056124E-03
   1       -5.480600
   2        2.398501
   3        3.696789
   4        5.205808
   5        8.563582
   6        8.922603
   7        9.192382
   8       11.202045
 
 -0.1290323E+00  0.1290323E+00  0.1893564E-16  0.4028062E-03
   1       -5.631790
   2        2.842638
   3        3.955037
   4        5.308253
   5        8.596115
   6        8.765102
   7        8.993249
   8       11.086478
 
  0.1612903E+00  0.1612903E+00 -0.5551115E-16  0.2014031E-03
   1       -5.751169
   2        3.658366
   3        4.502688
   4        4.502688
   5        7.373174
   6        9.837428
   7        9.837428
   8        9.866435
 
  0.1935484E+00  0.1612903E+00 -0.6938894E-16  0.8056124E-03
   1       -5.649594
   2        3.307064
   3        4.363069
   4        4.377168
   5        7.309218
   6        9.688087
   7       10.081003
   8       10.109340
 
  0.2258065E+00  0.1612903E+00 -0.5551115E-16  0.8056124E-03
   1       -5.522608
   2        2.861832
   3        4.236517
   4        4.250229
   5        7.340415
   6        9.552833
   7       10.215958
   8       10.294005
 
  0.2580645E+00  0.1612903E+00 -0.8326673E-16  0.8056124E-03
   1       -5.371007
   2        2.374183
   3        4.100033
   4        4.125680
   5        7.431225
   6        9.479524
   7       10.213188
   8       10.456731
 
  0.2903226E+00  0.1612903E+00 -0.8326673E-16  0.8056124E-03
   1       -5.195950
   2        1.869806
   3        3.932138
   4        4.032433
   5        7.535348
   6        9.493571
   7       10.160624
   8       10.555291
 