       N       E                     dE             d eps       ncg     rms          rms(c)
DAV:   1    -0.937265742092E+01   -0.93727E+01   -0.26142E+02 17472   0.535E+01
DAV:   2    -0.108414843029E+02   -0.14688E+01   -0.14688E+01 19088   0.197E+01
DAV:   3    -0.108496354621E+02   -0.81512E-02   -0.81512E-02 18832   0.144E+00
DAV:   4    -0.108496736728E+02   -0.38211E-04   -0.38211E-04 18120   0.911E-02
DAV:   5    -0.108496737368E+02   -0.63922E-07   -0.63922E-07 19272   0.297E-03
DAV:   6    -0.108496737372E+02   -0.47206E-09   -0.47205E-09 17648   0.183E-04
   1 F= -.10849674E+02 E0= -.10849674E+02  d E =0.000000E+00
