 vasp.5.3.2 13Sep12 (build Nov 15 2012 16:01:14) complex                        
  
 executed on             LinuxIFC date 2014.06.12  09:47:40
 serial version


--------------------------------------------------------------------------------------------------------


 INCAR:
 POTCAR:   PAW_PBE Si 05Jan2001                   
 POTCAR:   PAW_PBE Si 05Jan2001                   
   VRHFIN =Si: s2p2                                                             
   LEXCH  = PE                                                                  
   EATOM  =   103.0669 eV,    7.5752 Ry                                         
                                                                                
   TITEL  = PAW_PBE Si 05Jan2001                                                
   LULTRA =        F    use ultrasoft PP ?                                      
   IUNSCR =        1    unscreen: 0-lin 1-nonlin 2-no                           
   RPACOR =    1.500    partial core radius                                     
   POMASS =   28.085; ZVAL   =    4.000    mass and valenz                      
   RCORE  =    1.900    outmost cutoff radius                                   
   RWIGS  =    2.480; RWIGS  =    1.312    wigner-seitz radius (au A)           
   ENMAX  =  245.345; ENMIN  =  184.009 eV                                      
   ICORE  =        2    local potential                                         
   LCOR   =        T    correct aug charges                                     
   LPAW   =        T    paw PP                                                  
   EAUG   =  322.069                                                            
   DEXC   =    -.007                                                            
   RMAX   =    2.944    core radius for proj-oper                               
   RAUG   =    1.300    factor for augmentation sphere                          
   RDEP   =    1.993    radius for radial grids                                 
   QCUT   =   -4.246; QGAM   =    8.493    optimization parameters              
                                                                                
   Description                                                                  
     l     E      TYP  RCUT    TYP  RCUT                                        
     0   .000     23  1.900                                                     
     0   .000     23  1.900                                                     
     1   .000     23  1.900                                                     
     1   .000     23  1.900                                                     
     2   .000      7  1.900                                                     
  local pseudopotential read in
  partial core-charges read in
  atomic valenz-charges read in
  non local Contribution for L=           0  read in
    real space projection operators read in
  non local Contribution for L=           0  read in
    real space projection operators read in
  non local Contribution for L=           1  read in
    real space projection operators read in
  non local Contribution for L=           1  read in
    real space projection operators read in
    PAW grid and wavefunctions read in
 
   number of l-projection  operators is LMAX  =           4
   number of lm-projection operators is LMMAX =           8
 
 PAW_PBE Si 05Jan2001                   :
 energy of atom  1       EATOM= -103.0669
 kinetic energy error for atom=    0.0012 (will be added to EATOM!!)
 
 
 POSCAR: Si diamant                              
  positions in direct lattice
  velocities in cartesian coordinates
 exchange correlation table for  LEXCH =        8
   RHO(1)=    0.500       N(1)  =     2000
   RHO(2)=  100.500       N(2)  =     4000
 


--------------------------------------------------------------------------------------------------------


 ion  position               nearest neighbor table
   1  0.125  0.125  0.125-   2 2.37   2 2.37   2 2.37   2 2.37
   2  0.875  0.875  0.875-   1 2.37   1 2.37   1 2.37   1 2.37
 
  LATTYP: Found a face centered cubic cell.
 ALAT       =     5.4683394883
  
  Lattice vectors:
  
 A1 = (   3.8666999340,   0.0000000000,   0.0000000000)
 A2 = (   1.9333499670,   3.3486603717,   0.0000000000)
 A3 = (   1.9333499670,   1.1162201239,   3.1571472756)


Analysis of symmetry for initial positions (statically):
=====================================================================
 Subroutine PRICEL returns:
 Original cell was already a primitive cell.
 

 Routine SETGRP: Setting up the symmetry group for a 
 face centered cubic supercell.


 Subroutine GETGRP returns: Found 48 space group operations
 (whereof 12 operations were pure point group operations)
 out of a pool of 48 trial point group operations.


The static configuration has the point symmetry D_3d.
 The point group associated with its full space group is O_h .


Analysis of symmetry for dynamics (positions and initial velocities):
=====================================================================
 Subroutine PRICEL returns:
 Original cell was already a primitive cell.
 

 Routine SETGRP: Setting up the symmetry group for a 
 face centered cubic supercell.


 Subroutine GETGRP returns: Found 48 space group operations
 (whereof 12 operations were pure point group operations)
 out of a pool of 48 trial point group operations.


The dynamic configuration has the point symmetry D_3d.
 The point group associated with its full space group is O_h .
 
 
 KPOINTS: pointsk                                 

Automatic generation of k-mesh.
Space group operators:
 irot       det(A)        alpha          n_x          n_y          n_z        tau_x        tau_y        tau_z
    1     1.000000     0.000000     1.000000     0.000000     0.000000     0.000000     0.000000     0.000000
    2    -1.000000     0.000000     1.000000     0.000000     0.000000     0.000000     0.000000     0.000000
    3     1.000000   120.000000    -0.816497    -0.471405    -0.333333     0.000000     0.000000     0.000000
    4    -1.000000   120.000000    -0.816497    -0.471405    -0.333333     0.000000     0.000000     0.000000
    5     1.000000   120.000000     0.816497     0.471405     0.333333     0.000000     0.000000     0.000000
    6    -1.000000   120.000000     0.816497     0.471405     0.333333     0.000000     0.000000     0.000000
    7     1.000000   180.000000     0.000000    -0.577350     0.816497     0.000000     0.000000     0.000000
    8    -1.000000   180.000000     0.000000    -0.577350     0.816497     0.000000     0.000000     0.000000
    9     1.000000   180.000000    -0.500000     0.866025     0.000000     0.000000     0.000000     0.000000
   10    -1.000000   180.000000    -0.500000     0.866025     0.000000     0.000000     0.000000     0.000000
   11     1.000000   179.999999    -0.500000     0.288675     0.816497     0.000000     0.000000     0.000000
   12    -1.000000   179.999999    -0.500000     0.288675     0.816497     0.000000     0.000000     0.000000
   13     1.000000    90.000000    -0.707107    -0.408248     0.577350     0.500000     0.000000     0.000000
   14    -1.000000    90.000000    -0.707107    -0.408248     0.577350     0.500000     0.000000     0.000000
   15     1.000000   180.000000     1.000000     0.000000     0.000000     0.500000     0.000000     0.000000
   16    -1.000000   180.000000     1.000000     0.000000     0.000000     0.500000     0.000000     0.000000
   17     1.000000    90.000000     0.707107    -0.408248     0.577350     0.500000     0.000000     0.000000
   18    -1.000000    90.000000     0.707107    -0.408248     0.577350     0.500000     0.000000     0.000000
   19     1.000000   180.000000     0.707107     0.408248    -0.577350     0.000000     0.000000     0.500000
   20    -1.000000   180.000000     0.707107     0.408248    -0.577350     0.000000     0.000000     0.500000
   21     1.000000   120.000000     0.816497    -0.471405    -0.333333     0.000000     0.000000     0.500000
   22    -1.000000   120.000000     0.816497    -0.471405    -0.333333     0.000000     0.000000     0.500000
   23     1.000000   120.000000     0.000000    -0.942809     0.333333     0.000000     0.000000     0.500000
   24    -1.000000   120.000000     0.000000    -0.942809     0.333333     0.000000     0.000000     0.500000
   25     1.000000    90.000000     0.707107     0.408248    -0.577350     0.000000     0.500000     0.000000
   26    -1.000000    90.000000     0.707107     0.408248    -0.577350     0.000000     0.500000     0.000000
   27     1.000000    90.000000     0.000000    -0.816497    -0.577350     0.000000     0.500000     0.000000
   28    -1.000000    90.000000     0.000000    -0.816497    -0.577350     0.000000     0.500000     0.000000
   29     1.000000   180.000000     0.500000     0.866025     0.000000     0.000000     0.500000     0.000000
   30    -1.000000   180.000000     0.500000     0.866025     0.000000     0.000000     0.500000     0.000000
   31     1.000000   120.000000     0.000000     0.942809    -0.333333     0.500000     0.000000     0.000000
   32    -1.000000   120.000000     0.000000     0.942809    -0.333333     0.500000     0.000000     0.000000
   33     1.000000   120.000000     0.000000     0.000000    -1.000000     0.500000     0.000000     0.000000
   34    -1.000000   120.000000     0.000000     0.000000    -1.000000     0.500000     0.000000     0.000000
   35     1.000000   180.000000     0.000000    -0.816497    -0.577350     0.500000     0.000000     0.000000
   36    -1.000000   180.000000     0.000000    -0.816497    -0.577350     0.500000     0.000000     0.000000
   37     1.000000    90.000000    -0.707107     0.408248    -0.577350     0.000000     0.000000     0.500000
   38    -1.000000    90.000000    -0.707107     0.408248    -0.577350     0.000000     0.000000     0.500000
   39     1.000000   179.999999     0.500000     0.288675     0.816497     0.000000     0.000000     0.500000
   40    -1.000000   179.999999     0.500000     0.288675     0.816497     0.000000     0.000000     0.500000
   41     1.000000    90.000000     0.000000     0.816497     0.577350     0.000000     0.000000     0.500000
   42    -1.000000    90.000000     0.000000     0.816497     0.577350     0.000000     0.000000     0.500000
   43     1.000000   120.000000    -0.816497     0.471405     0.333333     0.000000     0.500000     0.000000
   44    -1.000000   120.000000    -0.816497     0.471405     0.333333     0.000000     0.500000     0.000000
   45     1.000000   180.000000    -0.707107     0.408248    -0.577350     0.000000     0.500000     0.000000
   46    -1.000000   180.000000    -0.707107     0.408248    -0.577350     0.000000     0.500000     0.000000
   47     1.000000   120.000000     0.000000     0.000000     1.000000     0.000000     0.500000     0.000000
   48    -1.000000   120.000000     0.000000     0.000000     1.000000     0.000000     0.500000     0.000000
 
 Subroutine IBZKPT returns following result:
 ===========================================
 
 Found    816 irreducible k-points:
 
 Following reciprocal coordinates:
            Coordinates               Weight
  0.000000  0.000000  0.000000      1.000000
  0.032258  0.000000  0.000000      8.000000
  0.064516  0.000000  0.000000      8.000000
  0.096774  0.000000  0.000000      8.000000
  0.129032  0.000000  0.000000      8.000000
  0.161290  0.000000  0.000000      8.000000
  0.193548  0.000000  0.000000      8.000000
  0.225806  0.000000  0.000000      8.000000
  0.258065  0.000000  0.000000      8.000000
  0.290323  0.000000  0.000000      8.000000
  0.322581  0.000000  0.000000      8.000000
  0.354839  0.000000  0.000000      8.000000
  0.387097  0.000000  0.000000      8.000000
  0.419355  0.000000  0.000000      8.000000
  0.451613  0.000000  0.000000      8.000000
  0.483871  0.000000  0.000000      8.000000
  0.032258  0.032258  0.000000      6.000000
  0.064516  0.032258  0.000000     24.000000
  0.096774  0.032258  0.000000     24.000000
  0.129032  0.032258  0.000000     24.000000
  0.161290  0.032258  0.000000     24.000000
  0.193548  0.032258  0.000000     24.000000
  0.225806  0.032258  0.000000     24.000000
  0.258065  0.032258  0.000000     24.000000
  0.290323  0.032258  0.000000     24.000000
  0.322581  0.032258  0.000000     24.000000
  0.354839  0.032258  0.000000     24.000000
  0.387097  0.032258  0.000000     24.000000
  0.419355  0.032258  0.000000     24.000000
  0.451613  0.032258  0.000000     24.000000
  0.483871  0.032258  0.000000     24.000000
 -0.483871  0.032258  0.000000     24.000000
 -0.451613  0.032258  0.000000     24.000000
 -0.419355  0.032258  0.000000     24.000000
 -0.387097  0.032258  0.000000     24.000000
 -0.354839  0.032258  0.000000     24.000000
 -0.322581  0.032258  0.000000     24.000000
 -0.290323  0.032258  0.000000     24.000000
 -0.258065  0.032258  0.000000     24.000000
 -0.225806  0.032258  0.000000     24.000000
 -0.193548  0.032258  0.000000     24.000000
 -0.161290  0.032258  0.000000     24.000000
 -0.129032  0.032258  0.000000     24.000000
 -0.096774  0.032258  0.000000     24.000000
 -0.064516  0.032258  0.000000     24.000000
 -0.032258  0.032258  0.000000     12.000000
  0.064516  0.064516  0.000000      6.000000
  0.096774  0.064516  0.000000     24.000000
  0.129032  0.064516  0.000000     24.000000
  0.161290  0.064516  0.000000     24.000000
  0.193548  0.064516  0.000000     24.000000
  0.225806  0.064516  0.000000     24.000000
  0.258065  0.064516  0.000000     24.000000
  0.290323  0.064516  0.000000     24.000000
  0.322581  0.064516  0.000000     24.000000
  0.354839  0.064516  0.000000     24.000000
  0.387097  0.064516  0.000000     24.000000
  0.419355  0.064516  0.000000     24.000000
  0.451613  0.064516  0.000000     24.000000
  0.483871  0.064516  0.000000     24.000000
 -0.483871  0.064516  0.000000     24.000000
 -0.451613  0.064516  0.000000     24.000000
 -0.419355  0.064516  0.000000     24.000000
 -0.387097  0.064516  0.000000     24.000000
 -0.354839  0.064516  0.000000     24.000000
 -0.322581  0.064516  0.000000     24.000000
 -0.290323  0.064516  0.000000     24.000000
 -0.258065  0.064516  0.000000     24.000000
 -0.225806  0.064516  0.000000     24.000000
 -0.193548  0.064516  0.000000     24.000000
 -0.161290  0.064516  0.000000     24.000000
 -0.129032  0.064516  0.000000     24.000000
 -0.096774  0.064516  0.000000     24.000000
 -0.064516  0.064516  0.000000     12.000000
  0.096774  0.096774  0.000000      6.000000
  0.129032  0.096774  0.000000     24.000000
  0.161290  0.096774  0.000000     24.000000
  0.193548  0.096774  0.000000     24.000000
  0.225806  0.096774  0.000000     24.000000
  0.258065  0.096774  0.000000     24.000000
  0.290323  0.096774  0.000000     24.000000
  0.322581  0.096774  0.000000     24.000000
  0.354839  0.096774  0.000000     24.000000
  0.387097  0.096774  0.000000     24.000000
  0.419355  0.096774  0.000000     24.000000
  0.451613  0.096774  0.000000     24.000000
  0.483871  0.096774  0.000000     24.000000
 -0.483871  0.096774  0.000000     24.000000
 -0.451613  0.096774  0.000000     24.000000
 -0.419355  0.096774  0.000000     24.000000
 -0.387097  0.096774  0.000000     24.000000
 -0.354839  0.096774  0.000000     24.000000
 -0.322581  0.096774  0.000000     24.000000
 -0.290323  0.096774  0.000000     24.000000
 -0.258065  0.096774  0.000000     24.000000
 -0.225806  0.096774  0.000000     24.000000
 -0.193548  0.096774  0.000000     24.000000
 -0.161290  0.096774  0.000000     24.000000
 -0.129032  0.096774  0.000000     24.000000
 -0.096774  0.096774  0.000000     12.000000
  0.129032  0.129032  0.000000      6.000000
  0.161290  0.129032  0.000000     24.000000
  0.193548  0.129032  0.000000     24.000000
  0.225806  0.129032  0.000000     24.000000
  0.258065  0.129032  0.000000     24.000000
  0.290323  0.129032  0.000000     24.000000
  0.322581  0.129032  0.000000     24.000000
  0.354839  0.129032  0.000000     24.000000
  0.387097  0.129032  0.000000     24.000000
  0.419355  0.129032  0.000000     24.000000
  0.451613  0.129032  0.000000     24.000000
  0.483871  0.129032  0.000000     24.000000
 -0.483871  0.129032  0.000000     24.000000
 -0.451613  0.129032  0.000000     24.000000
 -0.419355  0.129032  0.000000     24.000000
 -0.387097  0.129032  0.000000     24.000000
 -0.354839  0.129032  0.000000     24.000000
 -0.322581  0.129032  0.000000     24.000000
 -0.290323  0.129032  0.000000     24.000000
 -0.258065  0.129032  0.000000     24.000000
 -0.225806  0.129032  0.000000     24.000000
 -0.193548  0.129032  0.000000     24.000000
 -0.161290  0.129032  0.000000     24.000000
 -0.129032  0.129032  0.000000     12.000000
  0.161290  0.161290  0.000000      6.000000
  0.193548  0.161290  0.000000     24.000000
  0.225806  0.161290  0.000000     24.000000
  0.258065  0.161290  0.000000     24.000000
  0.290323  0.161290  0.000000     24.000000
  0.322581  0.161290  0.000000     24.000000
  0.354839  0.161290  0.000000     24.000000
  0.387097  0.161290  0.000000     24.000000
  0.419355  0.161290  0.000000     24.000000
  0.451613  0.161290  0.000000     24.000000
  0.483871  0.161290  0.000000     24.000000
 -0.483871  0.161290  0.000000     24.000000
 -0.451613  0.161290  0.000000     24.000000
 -0.419355  0.161290  0.000000     24.000000
 -0.387097  0.161290  0.000000     24.000000
 -0.354839  0.161290  0.000000     24.000000
 -0.322581  0.161290  0.000000     24.000000
 -0.290323  0.161290  0.000000     24.000000
 -0.258065  0.161290  0.000000     24.000000
 -0.225806  0.161290  0.000000     24.000000
 -0.193548  0.161290  0.000000     24.000000
 -0.161290  0.161290  0.000000     12.000000
  0.193548  0.193548  0.000000      6.000000
  0.225806  0.193548  0.000000     24.000000
  0.258065  0.193548  0.000000     24.000000
  0.290323  0.193548  0.000000     24.000000
  0.322581  0.193548  0.000000     24.000000
  0.354839  0.193548  0.000000     24.000000
  0.387097  0.193548  0.000000     24.000000
  0.419355  0.193548  0.000000     24.000000
  0.451613  0.193548  0.000000     24.000000
  0.483871  0.193548  0.000000     24.000000
 -0.483871  0.193548  0.000000     24.000000
 -0.451613  0.193548  0.000000     24.000000
 -0.419355  0.193548  0.000000     24.000000
 -0.387097  0.193548  0.000000     24.000000
 -0.354839  0.193548  0.000000     24.000000
 -0.322581  0.193548  0.000000     24.000000
 -0.290323  0.193548  0.000000     24.000000
 -0.258065  0.193548  0.000000     24.000000
 -0.225806  0.193548  0.000000     24.000000
 -0.193548  0.193548  0.000000     12.000000
  0.225806  0.225806  0.000000      6.000000
  0.258065  0.225806  0.000000     24.000000
  0.290323  0.225806  0.000000     24.000000
  0.322581  0.225806  0.000000     24.000000
  0.354839  0.225806  0.000000     24.000000
  0.387097  0.225806  0.000000     24.000000
  0.419355  0.225806  0.000000     24.000000
  0.451613  0.225806  0.000000     24.000000
  0.483871  0.225806  0.000000     24.000000
 -0.483871  0.225806  0.000000     24.000000
 -0.451613  0.225806  0.000000     24.000000
 -0.419355  0.225806  0.000000     24.000000
 -0.387097  0.225806  0.000000     24.000000
 -0.354839  0.225806  0.000000     24.000000
 -0.322581  0.225806  0.000000     24.000000
 -0.290323  0.225806  0.000000     24.000000
 -0.258065  0.225806  0.000000     24.000000
 -0.225806  0.225806  0.000000     12.000000
  0.258065  0.258065  0.000000      6.000000
  0.290323  0.258065  0.000000     24.000000
  0.322581  0.258065  0.000000     24.000000
  0.354839  0.258065  0.000000     24.000000
  0.387097  0.258065  0.000000     24.000000
  0.419355  0.258065  0.000000     24.000000
  0.451613  0.258065  0.000000     24.000000
  0.483871  0.258065  0.000000     24.000000
 -0.483871  0.258065  0.000000     24.000000
 -0.451613  0.258065  0.000000     24.000000
 -0.419355  0.258065  0.000000     24.000000
 -0.387097  0.258065  0.000000     24.000000
 -0.354839  0.258065  0.000000     24.000000
 -0.322581  0.258065  0.000000     24.000000
 -0.290323  0.258065  0.000000     24.000000
 -0.258065  0.258065  0.000000     12.000000
  0.290323  0.290323  0.000000      6.000000
  0.322581  0.290323  0.000000     24.000000
  0.354839  0.290323  0.000000     24.000000
  0.387097  0.290323  0.000000     24.000000
  0.419355  0.290323  0.000000     24.000000
  0.451613  0.290323  0.000000     24.000000
  0.483871  0.290323  0.000000     24.000000
 -0.483871  0.290323  0.000000     24.000000
 -0.451613  0.290323  0.000000     24.000000
 -0.419355  0.290323  0.000000     24.000000
 -0.387097  0.290323  0.000000     24.000000
 -0.354839  0.290323  0.000000     24.000000
 -0.322581  0.290323  0.000000     24.000000
 -0.290323  0.290323  0.000000     12.000000
  0.322581  0.322581  0.000000      6.000000
  0.354839  0.322581  0.000000     24.000000
  0.387097  0.322581  0.000000     24.000000
  0.419355  0.322581  0.000000     24.000000
  0.451613  0.322581  0.000000     24.000000
  0.483871  0.322581  0.000000     24.000000
 -0.483871  0.322581  0.000000     24.000000
 -0.451613  0.322581  0.000000     24.000000
 -0.419355  0.322581  0.000000     24.000000
 -0.387097  0.322581  0.000000     24.000000
 -0.354839  0.322581  0.000000     24.000000
 -0.322581  0.322581  0.000000     12.000000
  0.354839  0.354839  0.000000      6.000000
  0.387097  0.354839  0.000000     24.000000
  0.419355  0.354839  0.000000     24.000000
  0.451613  0.354839  0.000000     24.000000
  0.483871  0.354839  0.000000     24.000000
 -0.483871  0.354839  0.000000     24.000000
 -0.451613  0.354839  0.000000     24.000000
 -0.419355  0.354839  0.000000     24.000000
 -0.387097  0.354839  0.000000     24.000000
 -0.354839  0.354839  0.000000     12.000000
  0.387097  0.387097  0.000000      6.000000
  0.419355  0.387097  0.000000     24.000000
  0.451613  0.387097  0.000000     24.000000
  0.483871  0.387097  0.000000     24.000000
 -0.483871  0.387097  0.000000     24.000000
 -0.451613  0.387097  0.000000     24.000000
 -0.419355  0.387097  0.000000     24.000000
 -0.387097  0.387097  0.000000     12.000000
  0.419355  0.419355  0.000000      6.000000
  0.451613  0.419355  0.000000     24.000000
  0.483871  0.419355  0.000000     24.000000
 -0.483871  0.419355  0.000000     24.000000
 -0.451613  0.419355  0.000000     24.000000
 -0.419355  0.419355  0.000000     12.000000
  0.451613  0.451613  0.000000      6.000000
  0.483871  0.451613  0.000000     24.000000
 -0.483871  0.451613  0.000000     24.000000
 -0.451613  0.451613  0.000000     12.000000
  0.483871  0.483871  0.000000      6.000000
 -0.483871  0.483871  0.000000     12.000000
  0.096774  0.064516  0.032258     24.000000
  0.129032  0.064516  0.032258     48.000000
  0.161290  0.064516  0.032258     48.000000
  0.193548  0.064516  0.032258     48.000000
  0.225806  0.064516  0.032258     48.000000
  0.258065  0.064516  0.032258     48.000000
  0.290323  0.064516  0.032258     48.000000
  0.322581  0.064516  0.032258     48.000000
  0.354839  0.064516  0.032258     48.000000
  0.387097  0.064516  0.032258     48.000000
  0.419355  0.064516  0.032258     48.000000
  0.451613  0.064516  0.032258     48.000000
  0.483871  0.064516  0.032258     48.000000
 -0.483871  0.064516  0.032258     48.000000
  0.129032  0.096774  0.032258     24.000000
  0.161290  0.096774  0.032258     48.000000
  0.193548  0.096774  0.032258     48.000000
  0.225806  0.096774  0.032258     48.000000
  0.258065  0.096774  0.032258     48.000000
  0.290323  0.096774  0.032258     48.000000
  0.322581  0.096774  0.032258     48.000000
  0.354839  0.096774  0.032258     48.000000
  0.387097  0.096774  0.032258     48.000000
  0.419355  0.096774  0.032258     48.000000
  0.451613  0.096774  0.032258     48.000000
  0.483871  0.096774  0.032258     48.000000
 -0.483871  0.096774  0.032258     48.000000
 -0.451613  0.096774  0.032258     48.000000
 -0.419355  0.096774  0.032258     48.000000
 -0.387097  0.096774  0.032258     48.000000
 -0.354839  0.096774  0.032258     48.000000
 -0.322581  0.096774  0.032258     48.000000
 -0.290323  0.096774  0.032258     48.000000
 -0.258065  0.096774  0.032258     48.000000
 -0.225806  0.096774  0.032258     48.000000
 -0.193548  0.096774  0.032258     48.000000
 -0.161290  0.096774  0.032258     48.000000
 -0.129032  0.096774  0.032258     48.000000
 -0.096774  0.096774  0.032258     48.000000
 -0.064516  0.096774  0.032258     24.000000
  0.161290  0.129032  0.032258     24.000000
  0.193548  0.129032  0.032258     48.000000
  0.225806  0.129032  0.032258     48.000000
  0.258065  0.129032  0.032258     48.000000
  0.290323  0.129032  0.032258     48.000000
  0.322581  0.129032  0.032258     48.000000
  0.354839  0.129032  0.032258     48.000000
  0.387097  0.129032  0.032258     48.000000
  0.419355  0.129032  0.032258     48.000000
  0.451613  0.129032  0.032258     48.000000
  0.483871  0.129032  0.032258     48.000000
 -0.483871  0.129032  0.032258     48.000000
 -0.451613  0.129032  0.032258     48.000000
 -0.419355  0.129032  0.032258     48.000000
 -0.387097  0.129032  0.032258     48.000000
 -0.354839  0.129032  0.032258     48.000000
 -0.322581  0.129032  0.032258     48.000000
 -0.290323  0.129032  0.032258     48.000000
 -0.258065  0.129032  0.032258     48.000000
 -0.225806  0.129032  0.032258     48.000000
 -0.193548  0.129032  0.032258     48.000000
 -0.161290  0.129032  0.032258     48.000000
 -0.129032  0.129032  0.032258     48.000000
 -0.096774  0.129032  0.032258     24.000000
  0.193548  0.161290  0.032258     24.000000
  0.225806  0.161290  0.032258     48.000000
  0.258065  0.161290  0.032258     48.000000
  0.290323  0.161290  0.032258     48.000000
  0.322581  0.161290  0.032258     48.000000
  0.354839  0.161290  0.032258     48.000000
  0.387097  0.161290  0.032258     48.000000
  0.419355  0.161290  0.032258     48.000000
  0.451613  0.161290  0.032258     48.000000
  0.483871  0.161290  0.032258     48.000000
 -0.483871  0.161290  0.032258     48.000000
 -0.451613  0.161290  0.032258     48.000000
 -0.419355  0.161290  0.032258     48.000000
 -0.387097  0.161290  0.032258     48.000000
 -0.354839  0.161290  0.032258     48.000000
 -0.322581  0.161290  0.032258     48.000000
 -0.290323  0.161290  0.032258     48.000000
 -0.258065  0.161290  0.032258     48.000000
 -0.225806  0.161290  0.032258     48.000000
 -0.193548  0.161290  0.032258     48.000000
 -0.161290  0.161290  0.032258     48.000000
 -0.129032  0.161290  0.032258     24.000000
  0.225806  0.193548  0.032258     24.000000
  0.258065  0.193548  0.032258     48.000000
  0.290323  0.193548  0.032258     48.000000
  0.322581  0.193548  0.032258     48.000000
  0.354839  0.193548  0.032258     48.000000
  0.387097  0.193548  0.032258     48.000000
  0.419355  0.193548  0.032258     48.000000
  0.451613  0.193548  0.032258     48.000000
  0.483871  0.193548  0.032258     48.000000
 -0.483871  0.193548  0.032258     48.000000
 -0.451613  0.193548  0.032258     48.000000
 -0.419355  0.193548  0.032258     48.000000
 -0.387097  0.193548  0.032258     48.000000
 -0.354839  0.193548  0.032258     48.000000
 -0.322581  0.193548  0.032258     48.000000
 -0.290323  0.193548  0.032258     48.000000
 -0.258065  0.193548  0.032258     48.000000
 -0.225806  0.193548  0.032258     48.000000
 -0.193548  0.193548  0.032258     48.000000
 -0.161290  0.193548  0.032258     24.000000
  0.258065  0.225806  0.032258     24.000000
  0.290323  0.225806  0.032258     48.000000
  0.322581  0.225806  0.032258     48.000000
  0.354839  0.225806  0.032258     48.000000
  0.387097  0.225806  0.032258     48.000000
  0.419355  0.225806  0.032258     48.000000
  0.451613  0.225806  0.032258     48.000000
  0.483871  0.225806  0.032258     48.000000
 -0.483871  0.225806  0.032258     48.000000
 -0.451613  0.225806  0.032258     48.000000
 -0.419355  0.225806  0.032258     48.000000
 -0.387097  0.225806  0.032258     48.000000
 -0.354839  0.225806  0.032258     48.000000
 -0.322581  0.225806  0.032258     48.000000
 -0.290323  0.225806  0.032258     48.000000
 -0.258065  0.225806  0.032258     48.000000
 -0.225806  0.225806  0.032258     48.000000
 -0.193548  0.225806  0.032258     24.000000
  0.290323  0.258065  0.032258     24.000000
  0.322581  0.258065  0.032258     48.000000
  0.354839  0.258065  0.032258     48.000000
  0.387097  0.258065  0.032258     48.000000
  0.419355  0.258065  0.032258     48.000000
  0.451613  0.258065  0.032258     48.000000
  0.483871  0.258065  0.032258     48.000000
 -0.483871  0.258065  0.032258     48.000000
 -0.451613  0.258065  0.032258     48.000000
 -0.419355  0.258065  0.032258     48.000000
 -0.387097  0.258065  0.032258     48.000000
 -0.354839  0.258065  0.032258     48.000000
 -0.322581  0.258065  0.032258     48.000000
 -0.290323  0.258065  0.032258     48.000000
 -0.258065  0.258065  0.032258     48.000000
 -0.225806  0.258065  0.032258     24.000000
  0.322581  0.290323  0.032258     24.000000
  0.354839  0.290323  0.032258     48.000000
  0.387097  0.290323  0.032258     48.000000
  0.419355  0.290323  0.032258     48.000000
  0.451613  0.290323  0.032258     48.000000
  0.483871  0.290323  0.032258     48.000000
 -0.483871  0.290323  0.032258     48.000000
 -0.451613  0.290323  0.032258     48.000000
 -0.419355  0.290323  0.032258     48.000000
 -0.387097  0.290323  0.032258     48.000000
 -0.354839  0.290323  0.032258     48.000000
 -0.322581  0.290323  0.032258     48.000000
 -0.290323  0.290323  0.032258     48.000000
 -0.258065  0.290323  0.032258     24.000000
  0.354839  0.322581  0.032258     24.000000
  0.387097  0.322581  0.032258     48.000000
  0.419355  0.322581  0.032258     48.000000
  0.451613  0.322581  0.032258     48.000000
  0.483871  0.322581  0.032258     48.000000
 -0.483871  0.322581  0.032258     48.000000
 -0.451613  0.322581  0.032258     48.000000
 -0.419355  0.322581  0.032258     48.000000
 -0.387097  0.322581  0.032258     48.000000
 -0.354839  0.322581  0.032258     48.000000
 -0.322581  0.322581  0.032258     48.000000
 -0.290323  0.322581  0.032258     24.000000
  0.387097  0.354839  0.032258     24.000000
  0.419355  0.354839  0.032258     48.000000
  0.451613  0.354839  0.032258     48.000000
  0.483871  0.354839  0.032258     48.000000
 -0.483871  0.354839  0.032258     48.000000
 -0.451613  0.354839  0.032258     48.000000
 -0.419355  0.354839  0.032258     48.000000
 -0.387097  0.354839  0.032258     48.000000
 -0.354839  0.354839  0.032258     48.000000
 -0.322581  0.354839  0.032258     24.000000
  0.419355  0.387097  0.032258     24.000000
  0.451613  0.387097  0.032258     48.000000
  0.483871  0.387097  0.032258     48.000000
 -0.483871  0.387097  0.032258     48.000000
 -0.451613  0.387097  0.032258     48.000000
 -0.419355  0.387097  0.032258     48.000000
 -0.387097  0.387097  0.032258     48.000000
 -0.354839  0.387097  0.032258     24.000000
  0.451613  0.419355  0.032258     24.000000
  0.483871  0.419355  0.032258     48.000000
 -0.483871  0.419355  0.032258     48.000000
 -0.451613  0.419355  0.032258     48.000000
 -0.419355  0.419355  0.032258     48.000000
 -0.387097  0.419355  0.032258     24.000000
  0.483871  0.451613  0.032258     24.000000
 -0.483871  0.451613  0.032258     48.000000
 -0.451613  0.451613  0.032258     48.000000
 -0.419355  0.451613  0.032258     24.000000
 -0.483871  0.483871  0.032258     24.000000
 -0.451613  0.483871  0.032258     24.000000
  0.193548  0.129032  0.064516     24.000000
  0.225806  0.129032  0.064516     48.000000
  0.258065  0.129032  0.064516     48.000000
  0.290323  0.129032  0.064516     48.000000
  0.322581  0.129032  0.064516     48.000000
  0.354839  0.129032  0.064516     48.000000
  0.387097  0.129032  0.064516     48.000000
  0.419355  0.129032  0.064516     48.000000
  0.451613  0.129032  0.064516     48.000000
  0.483871  0.129032  0.064516     48.000000
 -0.483871  0.129032  0.064516     48.000000
 -0.451613  0.129032  0.064516     48.000000
  0.225806  0.161290  0.064516     24.000000
  0.258065  0.161290  0.064516     48.000000
  0.290323  0.161290  0.064516     48.000000
  0.322581  0.161290  0.064516     48.000000
  0.354839  0.161290  0.064516     48.000000
  0.387097  0.161290  0.064516     48.000000
  0.419355  0.161290  0.064516     48.000000
  0.451613  0.161290  0.064516     48.000000
  0.483871  0.161290  0.064516     48.000000
 -0.483871  0.161290  0.064516     48.000000
 -0.451613  0.161290  0.064516     48.000000
 -0.419355  0.161290  0.064516     48.000000
 -0.387097  0.161290  0.064516     48.000000
 -0.354839  0.161290  0.064516     48.000000
 -0.322581  0.161290  0.064516     48.000000
 -0.290323  0.161290  0.064516     48.000000
 -0.258065  0.161290  0.064516     48.000000
 -0.225806  0.161290  0.064516     48.000000
 -0.193548  0.161290  0.064516     48.000000
 -0.161290  0.161290  0.064516     48.000000
 -0.129032  0.161290  0.064516     48.000000
 -0.096774  0.161290  0.064516     24.000000
  0.258065  0.193548  0.064516     24.000000
  0.290323  0.193548  0.064516     48.000000
  0.322581  0.193548  0.064516     48.000000
  0.354839  0.193548  0.064516     48.000000
  0.387097  0.193548  0.064516     48.000000
  0.419355  0.193548  0.064516     48.000000
  0.451613  0.193548  0.064516     48.000000
  0.483871  0.193548  0.064516     48.000000
 -0.483871  0.193548  0.064516     48.000000
 -0.451613  0.193548  0.064516     48.000000
 -0.419355  0.193548  0.064516     48.000000
 -0.387097  0.193548  0.064516     48.000000
 -0.354839  0.193548  0.064516     48.000000
 -0.322581  0.193548  0.064516     48.000000
 -0.290323  0.193548  0.064516     48.000000
 -0.258065  0.193548  0.064516     48.000000
 -0.225806  0.193548  0.064516     48.000000
 -0.193548  0.193548  0.064516     48.000000
 -0.161290  0.193548  0.064516     48.000000
 -0.129032  0.193548  0.064516     24.000000
  0.290323  0.225806  0.064516     24.000000
  0.322581  0.225806  0.064516     48.000000
  0.354839  0.225806  0.064516     48.000000
  0.387097  0.225806  0.064516     48.000000
  0.419355  0.225806  0.064516     48.000000
  0.451613  0.225806  0.064516     48.000000
  0.483871  0.225806  0.064516     48.000000
 -0.483871  0.225806  0.064516     48.000000
 -0.451613  0.225806  0.064516     48.000000
 -0.419355  0.225806  0.064516     48.000000
 -0.387097  0.225806  0.064516     48.000000
 -0.354839  0.225806  0.064516     48.000000
 -0.322581  0.225806  0.064516     48.000000
 -0.290323  0.225806  0.064516     48.000000
 -0.258065  0.225806  0.064516     48.000000
 -0.225806  0.225806  0.064516     48.000000
 -0.193548  0.225806  0.064516     48.000000
 -0.161290  0.225806  0.064516     24.000000
  0.322581  0.258065  0.064516     24.000000
  0.354839  0.258065  0.064516     48.000000
  0.387097  0.258065  0.064516     48.000000
  0.419355  0.258065  0.064516     48.000000
  0.451613  0.258065  0.064516     48.000000
  0.483871  0.258065  0.064516     48.000000
 -0.483871  0.258065  0.064516     48.000000
 -0.451613  0.258065  0.064516     48.000000
 -0.419355  0.258065  0.064516     48.000000
 -0.387097  0.258065  0.064516     48.000000
 -0.354839  0.258065  0.064516     48.000000
 -0.322581  0.258065  0.064516     48.000000
 -0.290323  0.258065  0.064516     48.000000
 -0.258065  0.258065  0.064516     48.000000
 -0.225806  0.258065  0.064516     48.000000
 -0.193548  0.258065  0.064516     24.000000
  0.354839  0.290323  0.064516     24.000000
  0.387097  0.290323  0.064516     48.000000
  0.419355  0.290323  0.064516     48.000000
  0.451613  0.290323  0.064516     48.000000
  0.483871  0.290323  0.064516     48.000000
 -0.483871  0.290323  0.064516     48.000000
 -0.451613  0.290323  0.064516     48.000000
 -0.419355  0.290323  0.064516     48.000000
 -0.387097  0.290323  0.064516     48.000000
 -0.354839  0.290323  0.064516     48.000000
 -0.322581  0.290323  0.064516     48.000000
 -0.290323  0.290323  0.064516     48.000000
 -0.258065  0.290323  0.064516     48.000000
 -0.225806  0.290323  0.064516     24.000000
  0.387097  0.322581  0.064516     24.000000
  0.419355  0.322581  0.064516     48.000000
  0.451613  0.322581  0.064516     48.000000
  0.483871  0.322581  0.064516     48.000000
 -0.483871  0.322581  0.064516     48.000000
 -0.451613  0.322581  0.064516     48.000000
 -0.419355  0.322581  0.064516     48.000000
 -0.387097  0.322581  0.064516     48.000000
 -0.354839  0.322581  0.064516     48.000000
 -0.322581  0.322581  0.064516     48.000000
 -0.290323  0.322581  0.064516     48.000000
 -0.258065  0.322581  0.064516     24.000000
  0.419355  0.354839  0.064516     24.000000
  0.451613  0.354839  0.064516     48.000000
  0.483871  0.354839  0.064516     48.000000
 -0.483871  0.354839  0.064516     48.000000
 -0.451613  0.354839  0.064516     48.000000
 -0.419355  0.354839  0.064516     48.000000
 -0.387097  0.354839  0.064516     48.000000
 -0.354839  0.354839  0.064516     48.000000
 -0.322581  0.354839  0.064516     48.000000
 -0.290323  0.354839  0.064516     24.000000
  0.451613  0.387097  0.064516     24.000000
  0.483871  0.387097  0.064516     48.000000
 -0.483871  0.387097  0.064516     48.000000
 -0.451613  0.387097  0.064516     48.000000
 -0.419355  0.387097  0.064516     48.000000
 -0.387097  0.387097  0.064516     48.000000
 -0.354839  0.387097  0.064516     48.000000
 -0.322581  0.387097  0.064516     24.000000
  0.483871  0.419355  0.064516     24.000000
 -0.483871  0.419355  0.064516     48.000000
 -0.451613  0.419355  0.064516     48.000000
 -0.419355  0.419355  0.064516     48.000000
 -0.387097  0.419355  0.064516     48.000000
 -0.354839  0.419355  0.064516     24.000000
 -0.483871  0.451613  0.064516     24.000000
 -0.451613  0.451613  0.064516     48.000000
 -0.419355  0.451613  0.064516     48.000000
 -0.387097  0.451613  0.064516     24.000000
 -0.451613  0.483871  0.064516     24.000000
 -0.419355  0.483871  0.064516     24.000000
  0.290323  0.193548  0.096774     24.000000
  0.322581  0.193548  0.096774     48.000000
  0.354839  0.193548  0.096774     48.000000
  0.387097  0.193548  0.096774     48.000000
  0.419355  0.193548  0.096774     48.000000
  0.451613  0.193548  0.096774     48.000000
  0.483871  0.193548  0.096774     48.000000
 -0.483871  0.193548  0.096774     48.000000
 -0.451613  0.193548  0.096774     48.000000
 -0.419355  0.193548  0.096774     48.000000
  0.322581  0.225806  0.096774     24.000000
  0.354839  0.225806  0.096774     48.000000
  0.387097  0.225806  0.096774     48.000000
  0.419355  0.225806  0.096774     48.000000
  0.451613  0.225806  0.096774     48.000000
  0.483871  0.225806  0.096774     48.000000
 -0.483871  0.225806  0.096774     48.000000
 -0.451613  0.225806  0.096774     48.000000
 -0.419355  0.225806  0.096774     48.000000
 -0.387097  0.225806  0.096774     48.000000
 -0.354839  0.225806  0.096774     48.000000
 -0.322581  0.225806  0.096774     48.000000
 -0.290323  0.225806  0.096774     48.000000
 -0.258065  0.225806  0.096774     48.000000
 -0.225806  0.225806  0.096774     48.000000
 -0.193548  0.225806  0.096774     48.000000
 -0.161290  0.225806  0.096774     48.000000
 -0.129032  0.225806  0.096774     24.000000
  0.354839  0.258065  0.096774     24.000000
  0.387097  0.258065  0.096774     48.000000
  0.419355  0.258065  0.096774     48.000000
  0.451613  0.258065  0.096774     48.000000
  0.483871  0.258065  0.096774     48.000000
 -0.483871  0.258065  0.096774     48.000000
 -0.451613  0.258065  0.096774     48.000000
 -0.419355  0.258065  0.096774     48.000000
 -0.387097  0.258065  0.096774     48.000000
 -0.354839  0.258065  0.096774     48.000000
 -0.322581  0.258065  0.096774     48.000000
 -0.290323  0.258065  0.096774     48.000000
 -0.258065  0.258065  0.096774     48.000000
 -0.225806  0.258065  0.096774     48.000000
 -0.193548  0.258065  0.096774     48.000000
 -0.161290  0.258065  0.096774     24.000000
  0.387097  0.290323  0.096774     24.000000
  0.419355  0.290323  0.096774     48.000000
  0.451613  0.290323  0.096774     48.000000
  0.483871  0.290323  0.096774     48.000000
 -0.483871  0.290323  0.096774     48.000000
 -0.451613  0.290323  0.096774     48.000000
 -0.419355  0.290323  0.096774     48.000000
 -0.387097  0.290323  0.096774     48.000000
 -0.354839  0.290323  0.096774     48.000000
 -0.322581  0.290323  0.096774     48.000000
 -0.290323  0.290323  0.096774     48.000000
 -0.258065  0.290323  0.096774     48.000000
 -0.225806  0.290323  0.096774     48.000000
 -0.193548  0.290323  0.096774     24.000000
  0.419355  0.322581  0.096774     24.000000
  0.451613  0.322581  0.096774     48.000000
  0.483871  0.322581  0.096774     48.000000
 -0.483871  0.322581  0.096774     48.000000
 -0.451613  0.322581  0.096774     48.000000
 -0.419355  0.322581  0.096774     48.000000
 -0.387097  0.322581  0.096774     48.000000
 -0.354839  0.322581  0.096774     48.000000
 -0.322581  0.322581  0.096774     48.000000
 -0.290323  0.322581  0.096774     48.000000
 -0.258065  0.322581  0.096774     48.000000
 -0.225806  0.322581  0.096774     24.000000
  0.451613  0.354839  0.096774     24.000000
  0.483871  0.354839  0.096774     48.000000
 -0.483871  0.354839  0.096774     48.000000
 -0.451613  0.354839  0.096774     48.000000
 -0.419355  0.354839  0.096774     48.000000
 -0.387097  0.354839  0.096774     48.000000
 -0.354839  0.354839  0.096774     48.000000
 -0.322581  0.354839  0.096774     48.000000
 -0.290323  0.354839  0.096774     48.000000
 -0.258065  0.354839  0.096774     24.000000
  0.483871  0.387097  0.096774     24.000000
 -0.483871  0.387097  0.096774     48.000000
 -0.451613  0.387097  0.096774     48.000000
 -0.419355  0.387097  0.096774     48.000000
 -0.387097  0.387097  0.096774     48.000000
 -0.354839  0.387097  0.096774     48.000000
 -0.322581  0.387097  0.096774     48.000000
 -0.290323  0.387097  0.096774     24.000000
 -0.483871  0.419355  0.096774     24.000000
 -0.451613  0.419355  0.096774     48.000000
 -0.419355  0.419355  0.096774     48.000000
 -0.387097  0.419355  0.096774     48.000000
 -0.354839  0.419355  0.096774     48.000000
 -0.322581  0.419355  0.096774     24.000000
 -0.451613  0.451613  0.096774     24.000000
 -0.419355  0.451613  0.096774     48.000000
 -0.387097  0.451613  0.096774     48.000000
 -0.354839  0.451613  0.096774     24.000000
 -0.419355  0.483871  0.096774     24.000000
 -0.387097  0.483871  0.096774     24.000000
  0.387097  0.258065  0.129032     24.000000
  0.419355  0.258065  0.129032     48.000000
  0.451613  0.258065  0.129032     48.000000
  0.483871  0.258065  0.129032     48.000000
 -0.483871  0.258065  0.129032     48.000000
 -0.451613  0.258065  0.129032     48.000000
 -0.419355  0.258065  0.129032     48.000000
 -0.387097  0.258065  0.129032     48.000000
  0.419355  0.290323  0.129032     24.000000
  0.451613  0.290323  0.129032     48.000000
  0.483871  0.290323  0.129032     48.000000
 -0.483871  0.290323  0.129032     48.000000
 -0.451613  0.290323  0.129032     48.000000
 -0.419355  0.290323  0.129032     48.000000
 -0.387097  0.290323  0.129032     48.000000
 -0.354839  0.290323  0.129032     48.000000
 -0.322581  0.290323  0.129032     48.000000
 -0.290323  0.290323  0.129032     48.000000
 -0.258065  0.290323  0.129032     48.000000
 -0.225806  0.290323  0.129032     48.000000
 -0.193548  0.290323  0.129032     48.000000
 -0.161290  0.290323  0.129032     24.000000
  0.451613  0.322581  0.129032     24.000000
  0.483871  0.322581  0.129032     48.000000
 -0.483871  0.322581  0.129032     48.000000
 -0.451613  0.322581  0.129032     48.000000
 -0.419355  0.322581  0.129032     48.000000
 -0.387097  0.322581  0.129032     48.000000
 -0.354839  0.322581  0.129032     48.000000
 -0.322581  0.322581  0.129032     48.000000
 -0.290323  0.322581  0.129032     48.000000
 -0.258065  0.322581  0.129032     48.000000
 -0.225806  0.322581  0.129032     48.000000
 -0.193548  0.322581  0.129032     24.000000
  0.483871  0.354839  0.129032     24.000000
 -0.483871  0.354839  0.129032     48.000000
 -0.451613  0.354839  0.129032     48.000000
 -0.419355  0.354839  0.129032     48.000000
 -0.387097  0.354839  0.129032     48.000000
 -0.354839  0.354839  0.129032     48.000000
 -0.322581  0.354839  0.129032     48.000000
 -0.290323  0.354839  0.129032     48.000000
 -0.258065  0.354839  0.129032     48.000000
 -0.225806  0.354839  0.129032     24.000000
 -0.483871  0.387097  0.129032     24.000000
 -0.451613  0.387097  0.129032     48.000000
 -0.419355  0.387097  0.129032     48.000000
 -0.387097  0.387097  0.129032     48.000000
 -0.354839  0.387097  0.129032     48.000000
 -0.322581  0.387097  0.129032     48.000000
 -0.290323  0.387097  0.129032     48.000000
 -0.258065  0.387097  0.129032     24.000000
 -0.451613  0.419355  0.129032     24.000000
 -0.419355  0.419355  0.129032     48.000000
 -0.387097  0.419355  0.129032     48.000000
 -0.354839  0.419355  0.129032     48.000000
 -0.322581  0.419355  0.129032     48.000000
 -0.290323  0.419355  0.129032     24.000000
 -0.419355  0.451613  0.129032     24.000000
 -0.387097  0.451613  0.129032     48.000000
 -0.354839  0.451613  0.129032     48.000000
 -0.322581  0.451613  0.129032     24.000000
 -0.387097  0.483871  0.129032     24.000000
 -0.354839  0.483871  0.129032     24.000000
  0.483871  0.322581  0.161290     24.000000
 -0.483871  0.322581  0.161290     48.000000
 -0.451613  0.322581  0.161290     48.000000
 -0.419355  0.322581  0.161290     48.000000
 -0.387097  0.322581  0.161290     48.000000
 -0.354839  0.322581  0.161290     48.000000
 -0.483871  0.354839  0.161290     24.000000
 -0.451613  0.354839  0.161290     48.000000
 -0.419355  0.354839  0.161290     48.000000
 -0.387097  0.354839  0.161290     48.000000
 -0.354839  0.354839  0.161290     48.000000
 -0.322581  0.354839  0.161290     48.000000
 -0.290323  0.354839  0.161290     48.000000
 -0.258065  0.354839  0.161290     48.000000
 -0.225806  0.354839  0.161290     48.000000
 -0.193548  0.354839  0.161290     24.000000
 -0.451613  0.387097  0.161290     24.000000
 -0.419355  0.387097  0.161290     48.000000
 -0.387097  0.387097  0.161290     48.000000
 -0.354839  0.387097  0.161290     48.000000
 -0.322581  0.387097  0.161290     48.000000
 -0.290323  0.387097  0.161290     48.000000
 -0.258065  0.387097  0.161290     48.000000
 -0.225806  0.387097  0.161290     24.000000
 -0.419355  0.419355  0.161290     24.000000
 -0.387097  0.419355  0.161290     48.000000
 -0.354839  0.419355  0.161290     48.000000
 -0.322581  0.419355  0.161290     48.000000
 -0.290323  0.419355  0.161290     48.000000
 -0.258065  0.419355  0.161290     24.000000
 -0.387097  0.451613  0.161290     24.000000
 -0.354839  0.451613  0.161290     48.000000
 -0.322581  0.451613  0.161290     48.000000
 -0.290323  0.451613  0.161290     24.000000
 -0.354839  0.483871  0.161290     24.000000
 -0.322581  0.483871  0.161290     24.000000
 -0.419355  0.387097  0.193548     24.000000
 -0.387097  0.387097  0.193548     48.000000
 -0.354839  0.387097  0.193548     48.000000
 -0.322581  0.387097  0.193548     48.000000
 -0.387097  0.419355  0.193548     24.000000
 -0.354839  0.419355  0.193548     48.000000
 -0.322581  0.419355  0.193548     48.000000
 -0.290323  0.419355  0.193548     48.000000
 -0.258065  0.419355  0.193548     48.000000
 -0.225806  0.419355  0.193548     24.000000
 -0.354839  0.451613  0.193548     24.000000
 -0.322581  0.451613  0.193548     48.000000
 -0.290323  0.451613  0.193548     48.000000
 -0.258065  0.451613  0.193548     24.000000
 -0.322581  0.483871  0.193548     24.000000
 -0.290323  0.483871  0.193548     24.000000
 -0.322581  0.451613  0.225806     24.000000
 -0.290323  0.451613  0.225806     48.000000
 -0.290323  0.483871  0.225806     24.000000
 -0.258065  0.483871  0.225806     24.000000
 
 Following cartesian coordinates:
            Coordinates               Weight
  0.000000  0.000000  0.000000      1.000000
  0.008343 -0.004817 -0.003406      8.000000
  0.016685 -0.009633 -0.006812      8.000000
  0.025028 -0.014450 -0.010217      8.000000
  0.033370 -0.019266 -0.013623      8.000000
  0.041713 -0.024083 -0.017029      8.000000
  0.050055 -0.028899 -0.020435      8.000000
  0.058398 -0.033716 -0.023841      8.000000
  0.066740 -0.038533 -0.027247      8.000000
  0.075083 -0.043349 -0.030652      8.000000
  0.083425 -0.048166 -0.034058      8.000000
  0.091768 -0.052982 -0.037464      8.000000
  0.100110 -0.057799 -0.040870      8.000000
  0.108453 -0.062615 -0.044276      8.000000
  0.116795 -0.067432 -0.047682      8.000000
  0.125138 -0.072248 -0.051087      8.000000
  0.008343  0.004817 -0.006812      6.000000
  0.016685  0.000000 -0.010217     24.000000
  0.025028 -0.004817 -0.013623     24.000000
  0.033370 -0.009633 -0.017029     24.000000
  0.041713 -0.014450 -0.020435     24.000000
  0.050055 -0.019266 -0.023841     24.000000
  0.058398 -0.024083 -0.027247     24.000000
  0.066740 -0.028899 -0.030652     24.000000
  0.075083 -0.033716 -0.034058     24.000000
  0.083425 -0.038533 -0.037464     24.000000
  0.091768 -0.043349 -0.040870     24.000000
  0.100110 -0.048166 -0.044276     24.000000
  0.108453 -0.052982 -0.047682     24.000000
  0.116795 -0.057799 -0.051087     24.000000
  0.125138 -0.062615 -0.054493     24.000000
 -0.125138  0.081882  0.047682     24.000000
 -0.116795  0.077065  0.044276     24.000000
 -0.108453  0.072248  0.040870     24.000000
 -0.100110  0.067432  0.037464     24.000000
 -0.091768  0.062615  0.034058     24.000000
 -0.083425  0.057799  0.030652     24.000000
 -0.075083  0.052982  0.027247     24.000000
 -0.066740  0.048166  0.023841     24.000000
 -0.058398  0.043349  0.020435     24.000000
 -0.050055  0.038533  0.017029     24.000000
 -0.041713  0.033716  0.013623     24.000000
 -0.033370  0.028899  0.010217     24.000000
 -0.025028  0.024083  0.006812     24.000000
 -0.016685  0.019266  0.003406     24.000000
 -0.008343  0.014450  0.000000     12.000000
  0.016685  0.009633 -0.013623      6.000000
  0.025028  0.004817 -0.017029     24.000000
  0.033370  0.000000 -0.020435     24.000000
  0.041713 -0.004817 -0.023841     24.000000
  0.050055 -0.009633 -0.027247     24.000000
  0.058398 -0.014450 -0.030652     24.000000
  0.066740 -0.019266 -0.034058     24.000000
  0.075083 -0.024083 -0.037464     24.000000
  0.083425 -0.028899 -0.040870     24.000000
  0.091768 -0.033716 -0.044276     24.000000
  0.100110 -0.038533 -0.047682     24.000000
  0.108453 -0.043349 -0.051087     24.000000
  0.116795 -0.048166 -0.054493     24.000000
  0.125138 -0.052982 -0.057899     24.000000
 -0.125138  0.091515  0.044276     24.000000
 -0.116795  0.086698  0.040870     24.000000
 -0.108453  0.081882  0.037464     24.000000
 -0.100110  0.077065  0.034058     24.000000
 -0.091768  0.072248  0.030652     24.000000
 -0.083425  0.067432  0.027247     24.000000
 -0.075083  0.062615  0.023841     24.000000
 -0.066740  0.057799  0.020435     24.000000
 -0.058398  0.052982  0.017029     24.000000
 -0.050055  0.048166  0.013623     24.000000
 -0.041713  0.043349  0.010217     24.000000
 -0.033370  0.038533  0.006812     24.000000
 -0.025028  0.033716  0.003406     24.000000
 -0.016685  0.028899  0.000000     12.000000
  0.025028  0.014450 -0.020435      6.000000
  0.033370  0.009633 -0.023841     24.000000
  0.041713  0.004817 -0.027247     24.000000
  0.050055  0.000000 -0.030652     24.000000
  0.058398 -0.004817 -0.034058     24.000000
  0.066740 -0.009633 -0.037464     24.000000
  0.075083 -0.014450 -0.040870     24.000000
  0.083425 -0.019266 -0.044276     24.000000
  0.091768 -0.024083 -0.047682     24.000000
  0.100110 -0.028899 -0.051087     24.000000
  0.108453 -0.033716 -0.054493     24.000000
  0.116795 -0.038533 -0.057899     24.000000
  0.125138 -0.043349 -0.061305     24.000000
 -0.125138  0.101148  0.040870     24.000000
 -0.116795  0.096331  0.037464     24.000000
 -0.108453  0.091515  0.034058     24.000000
 -0.100110  0.086698  0.030652     24.000000
 -0.091768  0.081882  0.027247     24.000000
 -0.083425  0.077065  0.023841     24.000000
 -0.075083  0.072248  0.020435     24.000000
 -0.066740  0.067432  0.017029     24.000000
 -0.058398  0.062615  0.013623     24.000000
 -0.050055  0.057799  0.010217     24.000000
 -0.041713  0.052982  0.006812     24.000000
 -0.033370  0.048166  0.003406     24.000000
 -0.025028  0.043349  0.000000     12.000000
  0.033370  0.019266 -0.027247      6.000000
  0.041713  0.014450 -0.030652     24.000000
  0.050055  0.009633 -0.034058     24.000000
  0.058398  0.004817 -0.037464     24.000000
  0.066740  0.000000 -0.040870     24.000000
  0.075083 -0.004817 -0.044276     24.000000
  0.083425 -0.009633 -0.047682     24.000000
  0.091768 -0.014450 -0.051087     24.000000
  0.100110 -0.019266 -0.054493     24.000000
  0.108453 -0.024083 -0.057899     24.000000
  0.116795 -0.028899 -0.061305     24.000000
  0.125138 -0.033716 -0.064711     24.000000
 -0.125138  0.110781  0.037464     24.000000
 -0.116795  0.105964  0.034058     24.000000
 -0.108453  0.101148  0.030652     24.000000
 -0.100110  0.096331  0.027247     24.000000
 -0.091768  0.091515  0.023841     24.000000
 -0.083425  0.086698  0.020435     24.000000
 -0.075083  0.081882  0.017029     24.000000
 -0.066740  0.077065  0.013623     24.000000
 -0.058398  0.072248  0.010217     24.000000
 -0.050055  0.067432  0.006812     24.000000
 -0.041713  0.062615  0.003406     24.000000
 -0.033370  0.057799  0.000000     12.000000
  0.041713  0.024083 -0.034058      6.000000
  0.050055  0.019266 -0.037464     24.000000
  0.058398  0.014450 -0.040870     24.000000
  0.066740  0.009633 -0.044276     24.000000
  0.075083  0.004817 -0.047682     24.000000
  0.083425  0.000000 -0.051087     24.000000
  0.091768 -0.004817 -0.054493     24.000000
  0.100110 -0.009633 -0.057899     24.000000
  0.108453 -0.014450 -0.061305     24.000000
  0.116795 -0.019266 -0.064711     24.000000
  0.125138 -0.024083 -0.068116     24.000000
 -0.125138  0.120414  0.034058     24.000000
 -0.116795  0.115598  0.030652     24.000000
 -0.108453  0.110781  0.027247     24.000000
 -0.100110  0.105964  0.023841     24.000000
 -0.091768  0.101148  0.020435     24.000000
 -0.083425  0.096331  0.017029     24.000000
 -0.075083  0.091515  0.013623     24.000000
 -0.066740  0.086698  0.010217     24.000000
 -0.058398  0.081882  0.006812     24.000000
 -0.050055  0.077065  0.003406     24.000000
 -0.041713  0.072248  0.000000     12.000000
  0.050055  0.028899 -0.040870      6.000000
  0.058398  0.024083 -0.044276     24.000000
  0.066740  0.019266 -0.047682     24.000000
  0.075083  0.014450 -0.051087     24.000000
  0.083425  0.009633 -0.054493     24.000000
  0.091768  0.004817 -0.057899     24.000000
  0.100110  0.000000 -0.061305     24.000000
  0.108453 -0.004817 -0.064711     24.000000
  0.116795 -0.009633 -0.068116     24.000000
  0.125138 -0.014450 -0.071522     24.000000
 -0.125138  0.130047  0.030652     24.000000
 -0.116795  0.125231  0.027247     24.000000
 -0.108453  0.120414  0.023841     24.000000
 -0.100110  0.115598  0.020435     24.000000
 -0.091768  0.110781  0.017029     24.000000
 -0.083425  0.105964  0.013623     24.000000
 -0.075083  0.101148  0.010217     24.000000
 -0.066740  0.096331  0.006812     24.000000
 -0.058398  0.091515  0.003406     24.000000
 -0.050055  0.086698  0.000000     12.000000
  0.058398  0.033716 -0.047682      6.000000
  0.066740  0.028899 -0.051087     24.000000
  0.075083  0.024083 -0.054493     24.000000
  0.083425  0.019266 -0.057899     24.000000
  0.091768  0.014450 -0.061305     24.000000
  0.100110  0.009633 -0.064711     24.000000
  0.108453  0.004817 -0.068116     24.000000
  0.116795  0.000000 -0.071522     24.000000
  0.125138 -0.004817 -0.074928     24.000000
 -0.125138  0.139680  0.027247     24.000000
 -0.116795  0.134864  0.023841     24.000000
 -0.108453  0.130047  0.020435     24.000000
 -0.100110  0.125231  0.017029     24.000000
 -0.091768  0.120414  0.013623     24.000000
 -0.083425  0.115598  0.010217     24.000000
 -0.075083  0.110781  0.006812     24.000000
 -0.066740  0.105964  0.003406     24.000000
 -0.058398  0.101148  0.000000     12.000000
  0.066740  0.038533 -0.054493      6.000000
  0.075083  0.033716 -0.057899     24.000000
  0.083425  0.028899 -0.061305     24.000000
  0.091768  0.024083 -0.064711     24.000000
  0.100110  0.019266 -0.068116     24.000000
  0.108453  0.014450 -0.071522     24.000000
  0.116795  0.009633 -0.074928     24.000000
  0.125138  0.004817 -0.078334     24.000000
 -0.125138  0.149313  0.023841     24.000000
 -0.116795  0.144497  0.020435     24.000000
 -0.108453  0.139680  0.017029     24.000000
 -0.100110  0.134864  0.013623     24.000000
 -0.091768  0.130047  0.010217     24.000000
 -0.083425  0.125231  0.006812     24.000000
 -0.075083  0.120414  0.003406     24.000000
 -0.066740  0.115598  0.000000     12.000000
  0.075083  0.043349 -0.061305      6.000000
  0.083425  0.038533 -0.064711     24.000000
  0.091768  0.033716 -0.068116     24.000000
  0.100110  0.028899 -0.071522     24.000000
  0.108453  0.024083 -0.074928     24.000000
  0.116795  0.019266 -0.078334     24.000000
  0.125138  0.014450 -0.081740     24.000000
 -0.125138  0.158947  0.020435     24.000000
 -0.116795  0.154130  0.017029     24.000000
 -0.108453  0.149313  0.013623     24.000000
 -0.100110  0.144497  0.010217     24.000000
 -0.091768  0.139680  0.006812     24.000000
 -0.083425  0.134864  0.003406     24.000000
 -0.075083  0.130047  0.000000     12.000000
  0.083425  0.048166 -0.068116      6.000000
  0.091768  0.043349 -0.071522     24.000000
  0.100110  0.038533 -0.074928     24.000000
  0.108453  0.033716 -0.078334     24.000000
  0.116795  0.028899 -0.081740     24.000000
  0.125138  0.024083 -0.085146     24.000000
 -0.125138  0.168580  0.017029     24.000000
 -0.116795  0.163763  0.013623     24.000000
 -0.108453  0.158947  0.010217     24.000000
 -0.100110  0.154130  0.006812     24.000000
 -0.091768  0.149313  0.003406     24.000000
 -0.083425  0.144497  0.000000     12.000000
  0.091768  0.052982 -0.074928      6.000000
  0.100110  0.048166 -0.078334     24.000000
  0.108453  0.043349 -0.081740     24.000000
  0.116795  0.038533 -0.085146     24.000000
  0.125138  0.033716 -0.088551     24.000000
 -0.125138  0.178213  0.013623     24.000000
 -0.116795  0.173396  0.010217     24.000000
 -0.108453  0.168580  0.006812     24.000000
 -0.100110  0.163763  0.003406     24.000000
 -0.091768  0.158947  0.000000     12.000000
  0.100110  0.057799 -0.081740      6.000000
  0.108453  0.052982 -0.085146     24.000000
  0.116795  0.048166 -0.088551     24.000000
  0.125138  0.043349 -0.091957     24.000000
 -0.125138  0.187846  0.010217     24.000000
 -0.116795  0.183029  0.006812     24.000000
 -0.108453  0.178213  0.003406     24.000000
 -0.100110  0.173396  0.000000     12.000000
  0.108453  0.062615 -0.088551      6.000000
  0.116795  0.057799 -0.091957     24.000000
  0.125138  0.052982 -0.095363     24.000000
 -0.125138  0.197479  0.006812     24.000000
 -0.116795  0.192663  0.003406     24.000000
 -0.108453  0.187846  0.000000     12.000000
  0.116795  0.067432 -0.095363      6.000000
  0.125138  0.062615 -0.098769     24.000000
 -0.125138  0.207112  0.003406     24.000000
 -0.116795  0.202296  0.000000     12.000000
  0.125138  0.072248 -0.102175      6.000000
 -0.125138  0.216745  0.000000     12.000000
  0.025028  0.004817 -0.006812     24.000000
  0.033370  0.000000 -0.010217     48.000000
  0.041713 -0.004817 -0.013623     48.000000
  0.050055 -0.009633 -0.017029     48.000000
  0.058398 -0.014450 -0.020435     48.000000
  0.066740 -0.019266 -0.023841     48.000000
  0.075083 -0.024083 -0.027247     48.000000
  0.083425 -0.028899 -0.030652     48.000000
  0.091768 -0.033716 -0.034058     48.000000
  0.100110 -0.038533 -0.037464     48.000000
  0.108453 -0.043349 -0.040870     48.000000
  0.116795 -0.048166 -0.044276     48.000000
  0.125138 -0.052982 -0.047682     48.000000
 -0.125138  0.091515  0.054493     48.000000
  0.033370  0.009633 -0.013623     24.000000
  0.041713  0.004817 -0.017029     48.000000
  0.050055  0.000000 -0.020435     48.000000
  0.058398 -0.004817 -0.023841     48.000000
  0.066740 -0.009633 -0.027247     48.000000
  0.075083 -0.014450 -0.030652     48.000000
  0.083425 -0.019266 -0.034058     48.000000
  0.091768 -0.024083 -0.037464     48.000000
  0.100110 -0.028899 -0.040870     48.000000
  0.108453 -0.033716 -0.044276     48.000000
  0.116795 -0.038533 -0.047682     48.000000
  0.125138 -0.043349 -0.051087     48.000000
 -0.125138  0.101148  0.051087     48.000000
 -0.116795  0.096331  0.047682     48.000000
 -0.108453  0.091515  0.044276     48.000000
 -0.100110  0.086698  0.040870     48.000000
 -0.091768  0.081882  0.037464     48.000000
 -0.083425  0.077065  0.034058     48.000000
 -0.075083  0.072248  0.030652     48.000000
 -0.066740  0.067432  0.027247     48.000000
 -0.058398  0.062615  0.023841     48.000000
 -0.050055  0.057799  0.020435     48.000000
 -0.041713  0.052982  0.017029     48.000000
 -0.033370  0.048166  0.013623     48.000000
 -0.025028  0.043349  0.010217     48.000000
 -0.016685  0.038533  0.006812     24.000000
  0.041713  0.014450 -0.020435     24.000000
  0.050055  0.009633 -0.023841     48.000000
  0.058398  0.004817 -0.027247     48.000000
  0.066740  0.000000 -0.030652     48.000000
  0.075083 -0.004817 -0.034058     48.000000
  0.083425 -0.009633 -0.037464     48.000000
  0.091768 -0.014450 -0.040870     48.000000
  0.100110 -0.019266 -0.044276     48.000000
  0.108453 -0.024083 -0.047682     48.000000
  0.116795 -0.028899 -0.051087     48.000000
  0.125138 -0.033716 -0.054493     48.000000
 -0.125138  0.110781  0.047682     48.000000
 -0.116795  0.105964  0.044276     48.000000
 -0.108453  0.101148  0.040870     48.000000
 -0.100110  0.096331  0.037464     48.000000
 -0.091768  0.091515  0.034058     48.000000
 -0.083425  0.086698  0.030652     48.000000
 -0.075083  0.081882  0.027247     48.000000
 -0.066740  0.077065  0.023841     48.000000
 -0.058398  0.072248  0.020435     48.000000
 -0.050055  0.067432  0.017029     48.000000
 -0.041713  0.062615  0.013623     48.000000
 -0.033370  0.057799  0.010217     48.000000
 -0.025028  0.052982  0.006812     24.000000
  0.050055  0.019266 -0.027247     24.000000
  0.058398  0.014450 -0.030652     48.000000
  0.066740  0.009633 -0.034058     48.000000
  0.075083  0.004817 -0.037464     48.000000
  0.083425  0.000000 -0.040870     48.000000
  0.091768 -0.004817 -0.044276     48.000000
  0.100110 -0.009633 -0.047682     48.000000
  0.108453 -0.014450 -0.051087     48.000000
  0.116795 -0.019266 -0.054493     48.000000
  0.125138 -0.024083 -0.057899     48.000000
 -0.125138  0.120414  0.044276     48.000000
 -0.116795  0.115598  0.040870     48.000000
 -0.108453  0.110781  0.037464     48.000000
 -0.100110  0.105964  0.034058     48.000000
 -0.091768  0.101148  0.030652     48.000000
 -0.083425  0.096331  0.027247     48.000000
 -0.075083  0.091515  0.023841     48.000000
 -0.066740  0.086698  0.020435     48.000000
 -0.058398  0.081882  0.017029     48.000000
 -0.050055  0.077065  0.013623     48.000000
 -0.041713  0.072248  0.010217     48.000000
 -0.033370  0.067432  0.006812     24.000000
  0.058398  0.024083 -0.034058     24.000000
  0.066740  0.019266 -0.037464     48.000000
  0.075083  0.014450 -0.040870     48.000000
  0.083425  0.009633 -0.044276     48.000000
  0.091768  0.004817 -0.047682     48.000000
  0.100110  0.000000 -0.051087     48.000000
  0.108453 -0.004817 -0.054493     48.000000
  0.116795 -0.009633 -0.057899     48.000000
  0.125138 -0.014450 -0.061305     48.000000
 -0.125138  0.130047  0.040870     48.000000
 -0.116795  0.125231  0.037464     48.000000
 -0.108453  0.120414  0.034058     48.000000
 -0.100110  0.115598  0.030652     48.000000
 -0.091768  0.110781  0.027247     48.000000
 -0.083425  0.105964  0.023841     48.000000
 -0.075083  0.101148  0.020435     48.000000
 -0.066740  0.096331  0.017029     48.000000
 -0.058398  0.091515  0.013623     48.000000
 -0.050055  0.086698  0.010217     48.000000
 -0.041713  0.081882  0.006812     24.000000
  0.066740  0.028899 -0.040870     24.000000
  0.075083  0.024083 -0.044276     48.000000
  0.083425  0.019266 -0.047682     48.000000
  0.091768  0.014450 -0.051087     48.000000
  0.100110  0.009633 -0.054493     48.000000
  0.108453  0.004817 -0.057899     48.000000
  0.116795  0.000000 -0.061305     48.000000
  0.125138 -0.004817 -0.064711     48.000000
 -0.125138  0.139680  0.037464     48.000000
 -0.116795  0.134864  0.034058     48.000000
 -0.108453  0.130047  0.030652     48.000000
 -0.100110  0.125231  0.027247     48.000000
 -0.091768  0.120414  0.023841     48.000000
 -0.083425  0.115598  0.020435     48.000000
 -0.075083  0.110781  0.017029     48.000000
 -0.066740  0.105964  0.013623     48.000000
 -0.058398  0.101148  0.010217     48.000000
 -0.050055  0.096331  0.006812     24.000000
  0.075083  0.033716 -0.047682     24.000000
  0.083425  0.028899 -0.051087     48.000000
  0.091768  0.024083 -0.054493     48.000000
  0.100110  0.019266 -0.057899     48.000000
  0.108453  0.014450 -0.061305     48.000000
  0.116795  0.009633 -0.064711     48.000000
  0.125138  0.004817 -0.068116     48.000000
 -0.125138  0.149313  0.034058     48.000000
 -0.116795  0.144497  0.030652     48.000000
 -0.108453  0.139680  0.027247     48.000000
 -0.100110  0.134864  0.023841     48.000000
 -0.091768  0.130047  0.020435     48.000000
 -0.083425  0.125231  0.017029     48.000000
 -0.075083  0.120414  0.013623     48.000000
 -0.066740  0.115598  0.010217     48.000000
 -0.058398  0.110781  0.006812     24.000000
  0.083425  0.038533 -0.054493     24.000000
  0.091768  0.033716 -0.057899     48.000000
  0.100110  0.028899 -0.061305     48.000000
  0.108453  0.024083 -0.064711     48.000000
  0.116795  0.019266 -0.068116     48.000000
  0.125138  0.014450 -0.071522     48.000000
 -0.125138  0.158947  0.030652     48.000000
 -0.116795  0.154130  0.027247     48.000000
 -0.108453  0.149313  0.023841     48.000000
 -0.100110  0.144497  0.020435     48.000000
 -0.091768  0.139680  0.017029     48.000000
 -0.083425  0.134864  0.013623     48.000000
 -0.075083  0.130047  0.010217     48.000000
 -0.066740  0.125231  0.006812     24.000000
  0.091768  0.043349 -0.061305     24.000000
  0.100110  0.038533 -0.064711     48.000000
  0.108453  0.033716 -0.068116     48.000000
  0.116795  0.028899 -0.071522     48.000000
  0.125138  0.024083 -0.074928     48.000000
 -0.125138  0.168580  0.027247     48.000000
 -0.116795  0.163763  0.023841     48.000000
 -0.108453  0.158947  0.020435     48.000000
 -0.100110  0.154130  0.017029     48.000000
 -0.091768  0.149313  0.013623     48.000000
 -0.083425  0.144497  0.010217     48.000000
 -0.075083  0.139680  0.006812     24.000000
  0.100110  0.048166 -0.068116     24.000000
  0.108453  0.043349 -0.071522     48.000000
  0.116795  0.038533 -0.074928     48.000000
  0.125138  0.033716 -0.078334     48.000000
 -0.125138  0.178213  0.023841     48.000000
 -0.116795  0.173396  0.020435     48.000000
 -0.108453  0.168580  0.017029     48.000000
 -0.100110  0.163763  0.013623     48.000000
 -0.091768  0.158947  0.010217     48.000000
 -0.083425  0.154130  0.006812     24.000000
  0.108453  0.052982 -0.074928     24.000000
  0.116795  0.048166 -0.078334     48.000000
  0.125138  0.043349 -0.081740     48.000000
 -0.125138  0.187846  0.020435     48.000000
 -0.116795  0.183029  0.017029     48.000000
 -0.108453  0.178213  0.013623     48.000000
 -0.100110  0.173396  0.010217     48.000000
 -0.091768  0.168580  0.006812     24.000000
  0.116795  0.057799 -0.081740     24.000000
  0.125138  0.052982 -0.085146     48.000000
 -0.125138  0.197479  0.017029     48.000000
 -0.116795  0.192663  0.013623     48.000000
 -0.108453  0.187846  0.010217     48.000000
 -0.100110  0.183029  0.006812     24.000000
  0.125138  0.062615 -0.088551     24.000000
 -0.125138  0.207112  0.013623     48.000000
 -0.116795  0.202296  0.010217     48.000000
 -0.108453  0.197479  0.006812     24.000000
 -0.125138  0.216745  0.010217     24.000000
 -0.116795  0.211929  0.006812     24.000000
  0.050055  0.009633 -0.013623     24.000000
  0.058398  0.004817 -0.017029     48.000000
  0.066740  0.000000 -0.020435     48.000000
  0.075083 -0.004817 -0.023841     48.000000
  0.083425 -0.009633 -0.027247     48.000000
  0.091768 -0.014450 -0.030652     48.000000
  0.100110 -0.019266 -0.034058     48.000000
  0.108453 -0.024083 -0.037464     48.000000
  0.116795 -0.028899 -0.040870     48.000000
  0.125138 -0.033716 -0.044276     48.000000
 -0.125138  0.110781  0.057899     48.000000
 -0.116795  0.105964  0.054493     48.000000
  0.058398  0.014450 -0.020435     24.000000
  0.066740  0.009633 -0.023841     48.000000
  0.075083  0.004817 -0.027247     48.000000
  0.083425  0.000000 -0.030652     48.000000
  0.091768 -0.004817 -0.034058     48.000000
  0.100110 -0.009633 -0.037464     48.000000
  0.108453 -0.014450 -0.040870     48.000000
  0.116795 -0.019266 -0.044276     48.000000
  0.125138 -0.024083 -0.047682     48.000000
 -0.125138  0.120414  0.054493     48.000000
 -0.116795  0.115598  0.051087     48.000000
 -0.108453  0.110781  0.047682     48.000000
 -0.100110  0.105964  0.044276     48.000000
 -0.091768  0.101148  0.040870     48.000000
 -0.083425  0.096331  0.037464     48.000000
 -0.075083  0.091515  0.034058     48.000000
 -0.066740  0.086698  0.030652     48.000000
 -0.058398  0.081882  0.027247     48.000000
 -0.050055  0.077065  0.023841     48.000000
 -0.041713  0.072248  0.020435     48.000000
 -0.033370  0.067432  0.017029     48.000000
 -0.025028  0.062615  0.013623     24.000000
  0.066740  0.019266 -0.027247     24.000000
  0.075083  0.014450 -0.030652     48.000000
  0.083425  0.009633 -0.034058     48.000000
  0.091768  0.004817 -0.037464     48.000000
  0.100110  0.000000 -0.040870     48.000000
  0.108453 -0.004817 -0.044276     48.000000
  0.116795 -0.009633 -0.047682     48.000000
  0.125138 -0.014450 -0.051087     48.000000
 -0.125138  0.130047  0.051087     48.000000
 -0.116795  0.125231  0.047682     48.000000
 -0.108453  0.120414  0.044276     48.000000
 -0.100110  0.115598  0.040870     48.000000
 -0.091768  0.110781  0.037464     48.000000
 -0.083425  0.105964  0.034058     48.000000
 -0.075083  0.101148  0.030652     48.000000
 -0.066740  0.096331  0.027247     48.000000
 -0.058398  0.091515  0.023841     48.000000
 -0.050055  0.086698  0.020435     48.000000
 -0.041713  0.081882  0.017029     48.000000
 -0.033370  0.077065  0.013623     24.000000
  0.075083  0.024083 -0.034058     24.000000
  0.083425  0.019266 -0.037464     48.000000
  0.091768  0.014450 -0.040870     48.000000
  0.100110  0.009633 -0.044276     48.000000
  0.108453  0.004817 -0.047682     48.000000
  0.116795  0.000000 -0.051087     48.000000
  0.125138 -0.004817 -0.054493     48.000000
 -0.125138  0.139680  0.047682     48.000000
 -0.116795  0.134864  0.044276     48.000000
 -0.108453  0.130047  0.040870     48.000000
 -0.100110  0.125231  0.037464     48.000000
 -0.091768  0.120414  0.034058     48.000000
 -0.083425  0.115598  0.030652     48.000000
 -0.075083  0.110781  0.027247     48.000000
 -0.066740  0.105964  0.023841     48.000000
 -0.058398  0.101148  0.020435     48.000000
 -0.050055  0.096331  0.017029     48.000000
 -0.041713  0.091515  0.013623     24.000000
  0.083425  0.028899 -0.040870     24.000000
  0.091768  0.024083 -0.044276     48.000000
  0.100110  0.019266 -0.047682     48.000000
  0.108453  0.014450 -0.051087     48.000000
  0.116795  0.009633 -0.054493     48.000000
  0.125138  0.004817 -0.057899     48.000000
 -0.125138  0.149313  0.044276     48.000000
 -0.116795  0.144497  0.040870     48.000000
 -0.108453  0.139680  0.037464     48.000000
 -0.100110  0.134864  0.034058     48.000000
 -0.091768  0.130047  0.030652     48.000000
 -0.083425  0.125231  0.027247     48.000000
 -0.075083  0.120414  0.023841     48.000000
 -0.066740  0.115598  0.020435     48.000000
 -0.058398  0.110781  0.017029     48.000000
 -0.050055  0.105964  0.013623     24.000000
  0.091768  0.033716 -0.047682     24.000000
  0.100110  0.028899 -0.051087     48.000000
  0.108453  0.024083 -0.054493     48.000000
  0.116795  0.019266 -0.057899     48.000000
  0.125138  0.014450 -0.061305     48.000000
 -0.125138  0.158947  0.040870     48.000000
 -0.116795  0.154130  0.037464     48.000000
 -0.108453  0.149313  0.034058     48.000000
 -0.100110  0.144497  0.030652     48.000000
 -0.091768  0.139680  0.027247     48.000000
 -0.083425  0.134864  0.023841     48.000000
 -0.075083  0.130047  0.020435     48.000000
 -0.066740  0.125231  0.017029     48.000000
 -0.058398  0.120414  0.013623     24.000000
  0.100110  0.038533 -0.054493     24.000000
  0.108453  0.033716 -0.057899     48.000000
  0.116795  0.028899 -0.061305     48.000000
  0.125138  0.024083 -0.064711     48.000000
 -0.125138  0.168580  0.037464     48.000000
 -0.116795  0.163763  0.034058     48.000000
 -0.108453  0.158947  0.030652     48.000000
 -0.100110  0.154130  0.027247     48.000000
 -0.091768  0.149313  0.023841     48.000000
 -0.083425  0.144497  0.020435     48.000000
 -0.075083  0.139680  0.017029     48.000000
 -0.066740  0.134864  0.013623     24.000000
  0.108453  0.043349 -0.061305     24.000000
  0.116795  0.038533 -0.064711     48.000000
  0.125138  0.033716 -0.068116     48.000000
 -0.125138  0.178213  0.034058     48.000000
 -0.116795  0.173396  0.030652     48.000000
 -0.108453  0.168580  0.027247     48.000000
 -0.100110  0.163763  0.023841     48.000000
 -0.091768  0.158947  0.020435     48.000000
 -0.083425  0.154130  0.017029     48.000000
 -0.075083  0.149313  0.013623     24.000000
  0.116795  0.048166 -0.068116     24.000000
  0.125138  0.043349 -0.071522     48.000000
 -0.125138  0.187846  0.030652     48.000000
 -0.116795  0.183029  0.027247     48.000000
 -0.108453  0.178213  0.023841     48.000000
 -0.100110  0.173396  0.020435     48.000000
 -0.091768  0.168580  0.017029     48.000000
 -0.083425  0.163763  0.013623     24.000000
  0.125138  0.052982 -0.074928     24.000000
 -0.125138  0.197479  0.027247     48.000000
 -0.116795  0.192663  0.023841     48.000000
 -0.108453  0.187846  0.020435     48.000000
 -0.100110  0.183029  0.017029     48.000000
 -0.091768  0.178213  0.013623     24.000000
 -0.125138  0.207112  0.023841     24.000000
 -0.116795  0.202296  0.020435     48.000000
 -0.108453  0.197479  0.017029     48.000000
 -0.100110  0.192663  0.013623     24.000000
 -0.116795  0.211929  0.017029     24.000000
 -0.108453  0.207112  0.013623     24.000000
  0.075083  0.014450 -0.020435     24.000000
  0.083425  0.009633 -0.023841     48.000000
  0.091768  0.004817 -0.027247     48.000000
  0.100110  0.000000 -0.030652     48.000000
  0.108453 -0.004817 -0.034058     48.000000
  0.116795 -0.009633 -0.037464     48.000000
  0.125138 -0.014450 -0.040870     48.000000
 -0.125138  0.130047  0.061305     48.000000
 -0.116795  0.125231  0.057899     48.000000
 -0.108453  0.120414  0.054493     48.000000
  0.083425  0.019266 -0.027247     24.000000
  0.091768  0.014450 -0.030652     48.000000
  0.100110  0.009633 -0.034058     48.000000
  0.108453  0.004817 -0.037464     48.000000
  0.116795  0.000000 -0.040870     48.000000
  0.125138 -0.004817 -0.044276     48.000000
 -0.125138  0.139680  0.057899     48.000000
 -0.116795  0.134864  0.054493     48.000000
 -0.108453  0.130047  0.051087     48.000000
 -0.100110  0.125231  0.047682     48.000000
 -0.091768  0.120414  0.044276     48.000000
 -0.083425  0.115598  0.040870     48.000000
 -0.075083  0.110781  0.037464     48.000000
 -0.066740  0.105964  0.034058     48.000000
 -0.058398  0.101148  0.030652     48.000000
 -0.050055  0.096331  0.027247     48.000000
 -0.041713  0.091515  0.023841     48.000000
 -0.033370  0.086698  0.020435     24.000000
  0.091768  0.024083 -0.034058     24.000000
  0.100110  0.019266 -0.037464     48.000000
  0.108453  0.014450 -0.040870     48.000000
  0.116795  0.009633 -0.044276     48.000000
  0.125138  0.004817 -0.047682     48.000000
 -0.125138  0.149313  0.054493     48.000000
 -0.116795  0.144497  0.051087     48.000000
 -0.108453  0.139680  0.047682     48.000000
 -0.100110  0.134864  0.044276     48.000000
 -0.091768  0.130047  0.040870     48.000000
 -0.083425  0.125231  0.037464     48.000000
 -0.075083  0.120414  0.034058     48.000000
 -0.066740  0.115598  0.030652     48.000000
 -0.058398  0.110781  0.027247     48.000000
 -0.050055  0.105964  0.023841     48.000000
 -0.041713  0.101148  0.020435     24.000000
  0.100110  0.028899 -0.040870     24.000000
  0.108453  0.024083 -0.044276     48.000000
  0.116795  0.019266 -0.047682     48.000000
  0.125138  0.014450 -0.051087     48.000000
 -0.125138  0.158947  0.051087     48.000000
 -0.116795  0.154130  0.047682     48.000000
 -0.108453  0.149313  0.044276     48.000000
 -0.100110  0.144497  0.040870     48.000000
 -0.091768  0.139680  0.037464     48.000000
 -0.083425  0.134864  0.034058     48.000000
 -0.075083  0.130047  0.030652     48.000000
 -0.066740  0.125231  0.027247     48.000000
 -0.058398  0.120414  0.023841     48.000000
 -0.050055  0.115598  0.020435     24.000000
  0.108453  0.033716 -0.047682     24.000000
  0.116795  0.028899 -0.051087     48.000000
  0.125138  0.024083 -0.054493     48.000000
 -0.125138  0.168580  0.047682     48.000000
 -0.116795  0.163763  0.044276     48.000000
 -0.108453  0.158947  0.040870     48.000000
 -0.100110  0.154130  0.037464     48.000000
 -0.091768  0.149313  0.034058     48.000000
 -0.083425  0.144497  0.030652     48.000000
 -0.075083  0.139680  0.027247     48.000000
 -0.066740  0.134864  0.023841     48.000000
 -0.058398  0.130047  0.020435     24.000000
  0.116795  0.038533 -0.054493     24.000000
  0.125138  0.033716 -0.057899     48.000000
 -0.125138  0.178213  0.044276     48.000000
 -0.116795  0.173396  0.040870     48.000000
 -0.108453  0.168580  0.037464     48.000000
 -0.100110  0.163763  0.034058     48.000000
 -0.091768  0.158947  0.030652     48.000000
 -0.083425  0.154130  0.027247     48.000000
 -0.075083  0.149313  0.023841     48.000000
 -0.066740  0.144497  0.020435     24.000000
  0.125138  0.043349 -0.061305     24.000000
 -0.125138  0.187846  0.040870     48.000000
 -0.116795  0.183029  0.037464     48.000000
 -0.108453  0.178213  0.034058     48.000000
 -0.100110  0.173396  0.030652     48.000000
 -0.091768  0.168580  0.027247     48.000000
 -0.083425  0.163763  0.023841     48.000000
 -0.075083  0.158947  0.020435     24.000000
 -0.125138  0.197479  0.037464     24.000000
 -0.116795  0.192663  0.034058     48.000000
 -0.108453  0.187846  0.030652     48.000000
 -0.100110  0.183029  0.027247     48.000000
 -0.091768  0.178213  0.023841     48.000000
 -0.083425  0.173396  0.020435     24.000000
 -0.116795  0.202296  0.030652     24.000000
 -0.108453  0.197479  0.027247     48.000000
 -0.100110  0.192663  0.023841     48.000000
 -0.091768  0.187846  0.020435     24.000000
 -0.108453  0.207112  0.023841     24.000000
 -0.100110  0.202296  0.020435     24.000000
  0.100110  0.019266 -0.027247     24.000000
  0.108453  0.014450 -0.030652     48.000000
  0.116795  0.009633 -0.034058     48.000000
  0.125138  0.004817 -0.037464     48.000000
 -0.125138  0.149313  0.064711     48.000000
 -0.116795  0.144497  0.061305     48.000000
 -0.108453  0.139680  0.057899     48.000000
 -0.100110  0.134864  0.054493     48.000000
  0.108453  0.024083 -0.034058     24.000000
  0.116795  0.019266 -0.037464     48.000000
  0.125138  0.014450 -0.040870     48.000000
 -0.125138  0.158947  0.061305     48.000000
 -0.116795  0.154130  0.057899     48.000000
 -0.108453  0.149313  0.054493     48.000000
[...]
      7      10.9339      0.00000
      8      11.2814      0.00000

 k-point 790 :      -0.2581    0.4194    0.1613
  band No.  band energies     occupation 
      1      -2.6975      2.00000
      2      -1.2996      2.00000
      3       1.4902      2.00000
      4       2.6045      2.00000
      5       8.8070      0.00000
      6      10.2385      0.00000
      7      10.7406      0.00000
      8      11.5730      0.00000

 k-point 791 :      -0.3871    0.4516    0.1613
  band No.  band energies     occupation 
      1      -2.6261      2.00000
      2      -1.4034      2.00000
      3       1.9787      2.00000
      4       2.3093      2.00000
      5       8.1941      0.00000
      6       8.4309      0.00000
      7      11.6246      0.00000
      8      13.3207      0.00000

 k-point 792 :      -0.3548    0.4516    0.1613
  band No.  band energies     occupation 
      1      -2.4053      2.00000
      2      -1.6060      2.00000
      3       1.8559      2.00000
      4       2.2369      2.00000
      5       8.3578      0.00000
      6       8.8641      0.00000
      7      11.4942      0.00000
      8      12.6181      0.00000

 k-point 793 :      -0.3226    0.4516    0.1613
  band No.  band energies     occupation 
      1      -2.2735      2.00000
      2      -1.7207      2.00000
      3       1.7018      2.00000
      4       2.2707      2.00000
      5       8.4489      0.00000
      6       9.4341      0.00000
      7      11.3758      0.00000
      8      11.9435      0.00000

 k-point 794 :      -0.2903    0.4516    0.1613
  band No.  band energies     occupation 
      1      -2.3412      2.00000
      2      -1.6440      2.00000
      3       1.5788      2.00000
      4       2.3608      2.00000
      5       8.5543      0.00000
      6      10.0217      0.00000
      7      11.2218      0.00000
      8      11.3770      0.00000

 k-point 795 :      -0.3548    0.4839    0.1613
  band No.  band energies     occupation 
      1      -2.2231      2.00000
      2      -1.8137      2.00000
      3       2.0357      2.00000
      4       2.1451      2.00000
      5       8.2328      0.00000
      6       8.3112      0.00000
      7      12.1649      0.00000
      8      12.7318      0.00000

 k-point 796 :      -0.3226    0.4839    0.1613
  band No.  band energies     occupation 
      1      -2.0983      2.00000
      2      -1.9129      2.00000
      3       1.8725      2.00000
      4       2.1632      2.00000
      5       8.3493      0.00000
      6       8.8335      0.00000
      7      12.0068      0.00000
      8      12.0775      0.00000

 k-point 797 :      -0.4194    0.3871    0.1935
  band No.  band energies     occupation 
      1      -3.2711      2.00000
      2      -0.7314      2.00000
      3       1.7824      2.00000
      4       2.8238      2.00000
      5       8.8840      0.00000
      6       9.3687      0.00000
      7       9.9460      0.00000
      8      13.7043      0.00000

 k-point 798 :      -0.3871    0.3871    0.1935
  band No.  band energies     occupation 
      1      -3.0378      2.00000
      2      -0.9715      2.00000
      3       1.6771      2.00000
      4       2.6902      2.00000
      5       9.0920      0.00000
      6       9.5393      0.00000
      7       9.9892      0.00000
      8      13.0243      0.00000

 k-point 799 :      -0.3548    0.3871    0.1935
  band No.  band energies     occupation 
      1      -2.8335      2.00000
      2      -1.1833      2.00000
      3       1.6116      2.00000
      4       2.5955      2.00000
      5       9.1754      0.00000
      6       9.5436      0.00000
      7      10.3969      0.00000
      8      12.3322      0.00000

 k-point 800 :      -0.3226    0.3871    0.1935
  band No.  band energies     occupation 
      1      -2.7038      2.00000
      2      -1.3178      2.00000
      3       1.5805      2.00000
      4       2.5465      2.00000
      5       9.2205      0.00000
      6       9.4950      0.00000
      7      10.9384      0.00000
      8      11.6954      0.00000

 k-point 801 :      -0.3871    0.4194    0.1935
  band No.  band energies     occupation 
      1      -2.9163      2.00000
      2      -1.0811      2.00000
      3       1.7639      2.00000
      4       2.5054      2.00000
      5       8.8493      0.00000
      6       9.2032      0.00000
      7      10.3670      0.00000
      8      13.1118      0.00000

 k-point 802 :      -0.3548    0.4194    0.1935
  band No.  band energies     occupation 
      1      -2.6950      2.00000
      2      -1.2943      2.00000
      3       1.6841      2.00000
      4       2.3879      2.00000
      5       9.0420      0.00000
      6       9.5677      0.00000
      7      10.2790      0.00000
      8      12.4079      0.00000

 k-point 803 :      -0.3226    0.4194    0.1935
  band No.  band energies     occupation 
      1      -2.5302      2.00000
      2      -1.4535      2.00000
      3       1.6229      2.00000
      4       2.3333      2.00000
      5       9.1333      0.00000
      6       9.8844      0.00000
      7      10.4081      0.00000
      8      11.7373      0.00000

 k-point 804 :      -0.2903    0.4194    0.1935
  band No.  band energies     occupation 
      1      -2.4931      2.00000
      2      -1.4878      2.00000
      3       1.5824      2.00000
      4       2.3437      2.00000
      5       9.2242      0.00000
      6       9.8805      0.00000
      7      10.8135      0.00000
      8      11.2132      0.00000

 k-point 805 :      -0.2581    0.4194    0.1935
  band No.  band energies     occupation 
      1      -2.6077      2.00000
      2      -1.3749      2.00000
      3       1.5713      2.00000
      4       2.4130      2.00000
      5       9.3251      0.00000
      6       9.7809      0.00000
      7      10.4540      0.00000
      8      11.6415      0.00000

 k-point 806 :      -0.2258    0.4194    0.1935
  band No.  band energies     occupation 
      1      -2.8077      2.00000
      2      -1.1835      2.00000
      3       1.6001      2.00000
      4       2.5318      2.00000
      5       9.4279      0.00000
      6       9.5424      0.00000
      7      10.0883      0.00000
      8      12.3143      0.00000

 k-point 807 :      -0.3548    0.4516    0.1935
  band No.  band energies     occupation 
      1      -2.5505      2.00000
      2      -1.4402      2.00000
      3       1.7973      2.00000
      4       2.2402      2.00000
      5       8.8479      0.00000
      6       9.0597      0.00000
      7      10.8467      0.00000
      8      12.5037      0.00000

 k-point 808 :      -0.3226    0.4516    0.1935
  band No.  band energies     occupation 
      1      -2.3533      2.00000
      2      -1.6209      2.00000
      3       1.7349      2.00000
      4       2.1541      2.00000
      5       9.0129      0.00000
      6       9.5189      0.00000
      7      10.7376      0.00000
      8      11.8171      0.00000

 k-point 809 :      -0.2903    0.4516    0.1935
  band No.  band energies     occupation 
      1      -2.2834      2.00000
      2      -1.6813      2.00000
      3       1.6531      2.00000
      4       2.1737      2.00000
      5       9.1085      0.00000
      6      10.0332      0.00000
      7      10.6961      0.00000
      8      11.1825      0.00000

 k-point 810 :      -0.2581    0.4516    0.1935
  band No.  band energies     occupation 
      1      -2.4031      2.00000
      2      -1.5631      2.00000
      3       1.5893      2.00000
      4       2.2681      2.00000
      5       9.2154      0.00000
      6      10.1735      0.00000
      7      10.6276      0.00000
      8      11.0422      0.00000

 k-point 811 :      -0.3226    0.4839    0.1935
  band No.  band energies     occupation 
      1      -2.1790      2.00000
      2      -1.8073      2.00000
      3       1.8862      2.00000
      4       2.0334      2.00000
      5       8.8818      0.00000
      6       8.9521      0.00000
      7      11.3664      0.00000
      8      11.9201      0.00000

 k-point 812 :      -0.2903    0.4839    0.1935
  band No.  band energies     occupation 
      1      -2.1002      2.00000
      2      -1.8684      2.00000
      3       1.7816      2.00000
      4       2.0455      2.00000
      5       9.0035      0.00000
      6       9.4981      0.00000
      7      11.2303      0.00000
      8      11.2846      0.00000

 k-point 813 :      -0.3226    0.4516    0.2258
  band No.  band energies     occupation 
      1      -2.4743      2.00000
      2      -1.4939      2.00000
      3       1.6642      2.00000
      4       2.2260      2.00000
      5       9.5351      0.00000
      6       9.6033      0.00000
      7      10.2321      0.00000
      8      11.7163      0.00000

 k-point 814 :      -0.2903    0.4516    0.2258
  band No.  band energies     occupation 
      1      -2.3109      2.00000
      2      -1.6467      2.00000
      3       1.6652      2.00000
      4       2.1325      2.00000
      5       9.5987      0.00000
      6       9.8649      0.00000
      7      10.4294      0.00000
      8      11.0891      0.00000

 k-point 815 :      -0.2903    0.4839    0.2258
  band No.  band energies     occupation 
      1      -2.1413      2.00000
      2      -1.8134      2.00000
      3       1.7892      2.00000
      4       1.9768      2.00000
      5       9.5550      0.00000
      6       9.5931      0.00000
      7      10.6417      0.00000
      8      11.1537      0.00000

 k-point 816 :      -0.2581    0.4839    0.2258
  band No.  band energies     occupation 
      1      -2.1143      2.00000
      2      -1.8341      2.00000
      3       1.7532      2.00000
      4       1.9810      2.00000
      5       9.6425      0.00000
      6      10.0033      0.00000
      7      10.5820      0.00000
      8      10.6810      0.00000


--------------------------------------------------------------------------------------------------------


 soft charge-density along one line, spin component           1
         0         1         2         3         4         5         6         7         8         9
x     0.0000    0.0000    0.0000    0.0000    0.0000    0.0000    0.0000    0.0000    0.0000    0.0000
x     0.0000    0.0000    0.0000    0.0000    0.0000    0.0000    0.0000    0.0000    0.0000    0.0000
x     0.0000    0.0000    0.0000    0.0000    0.0000    0.0000    0.0000    0.0000    0.0000    0.0000
y     0.0000    0.0000    0.0000    0.0000    0.0000    0.0000    0.0000    0.0000    0.0000    0.0000
y     0.0000    0.0000    0.0000    0.0000    0.0000    0.0000    0.0000    0.0000    0.0000    0.0000
y     0.0000    0.0000    0.0000    0.0000    0.0000    0.0000    0.0000    0.0000    0.0000    0.0000
z     0.0000    0.0000    0.0000    0.0000    0.0000    0.0000    0.0000    0.0000    0.0000    0.0000
z     0.0000    0.0000    0.0000    0.0000    0.0000    0.0000    0.0000    0.0000    0.0000    0.0000
z     0.0000    0.0000    0.0000    0.0000    0.0000    0.0000    0.0000    0.0000    0.0000    0.0000
 total charge-density along one line
x     8.0000    0.0000    1.7871    0.0000    0.3549    0.0000    0.1586    0.0000    0.0233    0.0000
x    -0.0043    0.0000   -0.0007    0.0000   -0.0004    0.0000    0.0000    0.0000    0.0001    0.0000
x     0.0000    0.0000    0.0000    0.0000    0.0000    0.0000    0.0000    0.0000    0.0000    0.0000
x     0.0000    0.0000    0.0000    0.0000    0.0000    0.0000    0.0000    0.0000    0.0000    0.0000
x     0.0000    0.0000    0.0000    0.0000    0.0000    0.0000    0.0000    0.0000    0.0000    0.0000
x     0.0000    0.0000    0.0000    0.0000    0.0000    0.0000    0.0000    0.0000
y     8.0000    0.0000    1.7871    0.0000    0.3549    0.0000    0.1586    0.0000    0.0233    0.0000
y    -0.0043    0.0000   -0.0007    0.0000   -0.0004    0.0000    0.0000    0.0000    0.0001    0.0000
y     0.0000    0.0000    0.0000    0.0000    0.0000    0.0000    0.0000    0.0000    0.0000    0.0000
y     0.0000    0.0000    0.0000    0.0000    0.0000    0.0000    0.0000    0.0000    0.0000    0.0000
y     0.0000    0.0000    0.0000    0.0000    0.0000    0.0000    0.0000    0.0000    0.0000    0.0000
y     0.0000    0.0000    0.0000    0.0000    0.0000    0.0000    0.0000    0.0000
z     8.0000    0.0000    1.7871    0.0000    0.3549    0.0000    0.1586    0.0000    0.0233    0.0000
z    -0.0043    0.0000   -0.0007    0.0000   -0.0004    0.0000    0.0000    0.0000    0.0001    0.0000
z     0.0000    0.0000    0.0000    0.0000    0.0000    0.0000    0.0000    0.0000    0.0000    0.0000
z     0.0000    0.0000    0.0000    0.0000    0.0000    0.0000    0.0000    0.0000    0.0000    0.0000
z     0.0000    0.0000    0.0000    0.0000    0.0000    0.0000    0.0000    0.0000    0.0000    0.0000
z     0.0000    0.0000    0.0000    0.0000    0.0000    0.0000    0.0000    0.0000
 
 pseudopotential strength for first ion, spin component:           1
 18.437  -0.001   0.000   0.000   0.000   0.000   0.000   0.000
 -0.001   0.006   0.000   0.000   0.000   0.000   0.000   0.000
  0.000   0.000   4.181   0.000   0.000  -0.004   0.000   0.000
  0.000   0.000   0.000   4.181   0.000   0.000  -0.004   0.000
  0.000   0.000   0.000   0.000   4.181   0.000   0.000  -0.004
  0.000   0.000  -0.004   0.000   0.000   0.005   0.000   0.000
  0.000   0.000   0.000  -0.004   0.000   0.000   0.005   0.000
  0.000   0.000   0.000   0.000  -0.004   0.000   0.000   0.005
 total augmentation occupancy for first ion, spin component:           1
  2.000   0.000   0.000   0.000   0.000   0.000   0.000   0.000
  0.000   0.000   0.000   0.000   0.000   0.000   0.000   0.000
  0.000   0.000   0.667   0.000   0.000   0.000   0.000   0.000
  0.000   0.000   0.000   0.667   0.000   0.000   0.000   0.000
  0.000   0.000   0.000   0.000   0.667   0.000   0.000   0.000
  0.000   0.000   0.000   0.000   0.000   0.000   0.000   0.000
  0.000   0.000   0.000   0.000   0.000   0.000   0.000   0.000
  0.000   0.000   0.000   0.000   0.000   0.000   0.000   0.000


------------------------ aborting loop because EDIFF is reached ----------------------------------------


 


 total charge     
 
# of ion     s       p       d       tot
----------------------------------------
  1        0.751   0.928   0.000   1.679
  2        0.751   0.928   0.000   1.679
------------------------------------------------
tot        1.502   1.856   0.000   3.358
 
    CHARGE:  cpu time    2.72: real time    2.72
    FORLOC:  cpu time    0.01: real time    0.01
    FORNL :  cpu time    0.97: real time    0.97
    STRESS:  cpu time    3.74: real time    3.74
    FORCOR:  cpu time    0.15: real time    0.15
    FORHAR:  cpu time    0.04: real time    0.04
    FORVDW:  cpu time    0.00: real time    0.00

  FORCE on cell =-STRESS in cart. coord.  units (eV):
  Direction    XX          YY          ZZ          XY          YZ          ZX
  --------------------------------------------------------------------------------------
  Alpha Z     3.29388     3.29388     3.29388
  Ewald     -75.65371   -75.65371   -75.65371     0.00000     0.00000     0.00000
  Hartree     5.05490     5.05490     5.05490     0.00000     0.00000     0.00000
  E(xc)     -25.24821   -25.24821   -25.24821     0.00000     0.00000     0.00000
  Local     -29.51211   -29.51212   -29.51212     0.00001     0.00000     0.00000
  n-local    75.74913    77.11862    79.51619    -0.09896     0.40653     3.49575
  augment   -11.64973   -11.64972   -11.64972    -0.00001     0.00000     0.00000
  Kinetic    54.36301    55.98915    58.39185     2.30640     1.85612     2.37539
  Fock        0.00000     0.00000     0.00000     0.00000     0.00000     0.00000
  -------------------------------------------------------------------------------------
  Total      -0.00566    -0.00566    -0.00566     0.00000     0.00000     0.00000
  in kB      -0.22196    -0.22196    -0.22196     0.00000     0.00000     0.00000
  external pressure =       -0.22 kB  Pullay stress =        0.00 kB


 VOLUME and BASIS-vectors are now :
 -----------------------------------------------------------------------------
  energy-cutoff  :      400.00
  volume of cell :       40.88
      direct lattice vectors                 reciprocal lattice vectors
     3.866699934  0.000000000  0.000000000     0.258618465 -0.149313440 -0.105580546
     1.933349967  3.348660372  0.000000000     0.000000000  0.298626880 -0.105580546
     1.933349967  1.116220124  3.157147276     0.000000000  0.000000000  0.316741638

  length of vectors
     3.866699934  3.866699934  3.866699934     0.316741638  0.316741638  0.316741638


 FORCES acting on ions
    electron-ion (+dipol)            ewald-force                    non-local-force                 convergence-correction
 -----------------------------------------------------------------------------------------------
   -.120E-07 -.443E-08 -.269E-08   0.164E-14 0.839E-09 -.153E-09   -.486E-16 -.278E-16 0.486E-16   0.439E-10 0.250E-10 0.174E-10
   0.120E-07 0.443E-08 0.269E-08   -.103E-14 -.839E-09 0.153E-09   -.833E-16 0.111E-15 -.486E-16   -.439E-10 -.250E-10 -.174E-10
 -----------------------------------------------------------------------------------------------
   -.344E-13 -.290E-13 -.156E-13   0.614E-15 0.307E-16 -.841E-16   -.132E-15 0.833E-16 0.000E+00   0.447E-16 0.118E-14 -.366E-14
 
 
 POSITION                                       TOTAL-FORCE (eV/Angst)
 -----------------------------------------------------------------------------------
      0.96667      0.55811      0.39464         0.000000      0.000000      0.000000
      6.76672      3.90677      2.76250         0.000000      0.000000      0.000000
 -----------------------------------------------------------------------------------
    total drift:                                0.000000      0.000000      0.000000


--------------------------------------------------------------------------------------------------------



  FREE ENERGIE OF THE ION-ELECTRON SYSTEM (eV)
  ---------------------------------------------------
  free  energy   TOTEN  =       -10.84967374 eV

  energy  without entropy=      -10.84967374  energy(sigma->0) =      -10.84967374
 


--------------------------------------------------------------------------------------------------------


    POTLOK:  cpu time    0.16: real time    0.16


--------------------------------------------------------------------------------------------------------


 writing wavefunctions
     LOOP+:  cpu time  317.61: real time  318.82
    4ORBIT:  cpu time    0.00: real time    0.00
 


 total charge     
 
# of ion     s       p       d       tot
----------------------------------------
  1        0.751   0.928   0.000   1.679
  2        0.751   0.928   0.000   1.679
------------------------------------------------
tot        1.502   1.856   0.000   3.358
 
 BZINTS: Fermi energy:  5.687257;  8.000000 electrons
         Band energy:   4.943239;  BLOECHL correction:  0.000000

 total amount of memory used by VASP on root node   159821. kBytes
========================================================================

   base      :      30000. kBytes
   nonl-proj :      39557. kBytes
   grid      :       9520. kBytes
   one-center:          6. kBytes
   wavefun   :      80738. kBytes
 
  
  
 General timing and accounting informations for this job:
 ========================================================
  
                  Total CPU time used (sec):      322.892
                            User time (sec):      321.386
                          System time (sec):        1.506
                         Elapsed time (sec):      324.795
  
                   Maximum memory used (kb):      321640.
                   Average memory used (kb):           0.
  
                          Minor page faults:        50747
                          Major page faults:           11
                 Voluntary context switches:         1637
