<?xml version="1.0" encoding="ISO-8859-1"?>
<modeling>
 <generator>
  <i name="program" type="string">vasp </i>
  <i name="version" type="string">5.3.2  </i>
  <i name="subversion" type="string">13Sep12 (build Nov 15 2012 16:01:14) complex                          serial </i>
  <i name="platform" type="string">LinuxIFC </i>
  <i name="date" type="string">2014 06 12 </i>
  <i name="time" type="string">09:47:40 </i>
 </generator>
 <incar>
  <i type="string" name="PREC">accurate</i>
  <i type="int" name="ICHARG">    11</i>
  <i type="int" name="NELMIN">     6</i>
  <i name="EDIFF">      0.00000100</i>
  <i type="int" name="NSW">     0</i>
  <i name="ENCUT">    400.00000000</i>
  <i type="int" name="ISMEAR">    -5</i>
  <i type="logical" name="LORBIT"> F  </i>
 </incar>
 <kpoints>
  <generation param="Gamma">
   <v type="int" name="divisions">      31       31       31 </v>
   <v name="usershift">      0.00000000       0.00000000       0.00000000 </v>
   <v name="genvec1">      0.03225806       0.00000000       0.00000000 </v>
   <v name="genvec2">      0.00000000       0.03225806       0.00000000 </v>
   <v name="genvec3">      0.00000000       0.00000000       0.03225806 </v>
   <v name="shift">      0.00000000       0.00000000       0.00000000 </v>
  </generation>
  <varray name="kpointlist" >
   <v>       0.00000000       0.00000000       0.00000000 </v>
   <v>       0.03225806       0.00000000       0.00000000 </v>
   <v>       0.06451613       0.00000000       0.00000000 </v>
   <v>       0.09677419       0.00000000       0.00000000 </v>
   <v>       0.12903226       0.00000000       0.00000000 </v>
   <v>       0.16129032       0.00000000       0.00000000 </v>
   <v>       0.19354839       0.00000000       0.00000000 </v>
   <v>       0.22580645       0.00000000       0.00000000 </v>
   <v>       0.25806452       0.00000000       0.00000000 </v>
   <v>       0.29032258       0.00000000       0.00000000 </v>
   <v>       0.32258065       0.00000000       0.00000000 </v>
   <v>       0.35483871       0.00000000       0.00000000 </v>
   <v>       0.38709677       0.00000000       0.00000000 </v>
   <v>       0.41935484       0.00000000       0.00000000 </v>
   <v>       0.45161290       0.00000000       0.00000000 </v>
   <v>       0.48387097       0.00000000       0.00000000 </v>
   <v>       0.03225806       0.03225806       0.00000000 </v>
   <v>       0.06451613       0.03225806       0.00000000 </v>
   <v>       0.09677419       0.03225806       0.00000000 </v>
   <v>       0.12903226       0.03225806       0.00000000 </v>
   <v>       0.16129032       0.03225806       0.00000000 </v>
   <v>       0.19354839       0.03225806       0.00000000 </v>
   <v>       0.22580645       0.03225806       0.00000000 </v>
   <v>       0.25806452       0.03225806       0.00000000 </v>
   <v>       0.29032258       0.03225806       0.00000000 </v>
   <v>       0.32258065       0.03225806       0.00000000 </v>
   <v>       0.35483871       0.03225806       0.00000000 </v>
   <v>       0.38709677       0.03225806       0.00000000 </v>
   <v>       0.41935484       0.03225806       0.00000000 </v>
   <v>       0.45161290       0.03225806       0.00000000 </v>
   <v>       0.48387097       0.03225806       0.00000000 </v>
   <v>      -0.48387097       0.03225806       0.00000000 </v>
   <v>      -0.45161290       0.03225806       0.00000000 </v>
   <v>      -0.41935484       0.03225806       0.00000000 </v>
   <v>      -0.38709677       0.03225806       0.00000000 </v>
   <v>      -0.35483871       0.03225806       0.00000000 </v>
   <v>      -0.32258065       0.03225806       0.00000000 </v>
   <v>      -0.29032258       0.03225806       0.00000000 </v>
   <v>      -0.25806452       0.03225806       0.00000000 </v>
   <v>      -0.22580645       0.03225806       0.00000000 </v>
   <v>      -0.19354839       0.03225806       0.00000000 </v>
   <v>      -0.16129032       0.03225806       0.00000000 </v>
   <v>      -0.12903226       0.03225806       0.00000000 </v>
   <v>      -0.09677419       0.03225806       0.00000000 </v>
   <v>      -0.06451613       0.03225806       0.00000000 </v>
   <v>      -0.03225806       0.03225806       0.00000000 </v>
   <v>       0.06451613       0.06451613       0.00000000 </v>
   <v>       0.09677419       0.06451613       0.00000000 </v>
   <v>       0.12903226       0.06451613       0.00000000 </v>
   <v>       0.16129032       0.06451613       0.00000000 </v>
   <v>       0.19354839       0.06451613       0.00000000 </v>
   <v>       0.22580645       0.06451613       0.00000000 </v>
   <v>       0.25806452       0.06451613       0.00000000 </v>
   <v>       0.29032258       0.06451613       0.00000000 </v>
   <v>       0.32258065       0.06451613       0.00000000 </v>
   <v>       0.35483871       0.06451613       0.00000000 </v>
   <v>       0.38709677       0.06451613       0.00000000 </v>
   <v>       0.41935484       0.06451613       0.00000000 </v>
   <v>       0.45161290       0.06451613       0.00000000 </v>
   <v>       0.48387097       0.06451613       0.00000000 </v>
   <v>      -0.48387097       0.06451613       0.00000000 </v>
   <v>      -0.45161290       0.06451613       0.00000000 </v>
   <v>      -0.41935484       0.06451613       0.00000000 </v>
   <v>      -0.38709677       0.06451613       0.00000000 </v>
   <v>      -0.35483871       0.06451613       0.00000000 </v>
   <v>      -0.32258065       0.06451613       0.00000000 </v>
   <v>      -0.29032258       0.06451613       0.00000000 </v>
   <v>      -0.25806452       0.06451613       0.00000000 </v>
   <v>      -0.22580645       0.06451613       0.00000000 </v>
   <v>      -0.19354839       0.06451613       0.00000000 </v>
   <v>      -0.16129032       0.06451613       0.00000000 </v>
   <v>      -0.12903226       0.06451613       0.00000000 </v>
   <v>      -0.09677419       0.06451613       0.00000000 </v>
   <v>      -0.06451613       0.06451613       0.00000000 </v>
   <v>       0.09677419       0.09677419       0.00000000 </v>
   <v>       0.12903226       0.09677419       0.00000000 </v>
   <v>       0.16129032       0.09677419       0.00000000 </v>
   <v>       0.19354839       0.09677419       0.00000000 </v>
   <v>       0.22580645       0.09677419       0.00000000 </v>
   <v>       0.25806452       0.09677419       0.00000000 </v>
   <v>       0.29032258       0.09677419       0.00000000 </v>
   <v>       0.32258065       0.09677419       0.00000000 </v>
   <v>       0.35483871       0.09677419       0.00000000 </v>
   <v>       0.38709677       0.09677419       0.00000000 </v>
   <v>       0.41935484       0.09677419       0.00000000 </v>
   <v>       0.45161290       0.09677419       0.00000000 </v>
   <v>       0.48387097       0.09677419       0.00000000 </v>
   <v>      -0.48387097       0.09677419       0.00000000 </v>
   <v>      -0.45161290       0.09677419       0.00000000 </v>
   <v>      -0.41935484       0.09677419       0.00000000 </v>
   <v>      -0.38709677       0.09677419       0.00000000 </v>
   <v>      -0.35483871       0.09677419       0.00000000 </v>
   <v>      -0.32258065       0.09677419       0.00000000 </v>
   <v>      -0.29032258       0.09677419       0.00000000 </v>
   <v>      -0.25806452       0.09677419       0.00000000 </v>
   <v>      -0.22580645       0.09677419       0.00000000 </v>
   <v>      -0.19354839       0.09677419       0.00000000 </v>
   <v>      -0.16129032       0.09677419       0.00000000 </v>
   <v>      -0.12903226       0.09677419       0.00000000 </v>
   <v>      -0.09677419       0.09677419       0.00000000 </v>
   <v>       0.12903226       0.12903226       0.00000000 </v>
   <v>       0.16129032       0.12903226       0.00000000 </v>
   <v>       0.19354839       0.12903226       0.00000000 </v>
   <v>       0.22580645       0.12903226       0.00000000 </v>
   <v>       0.25806452       0.12903226       0.00000000 </v>
   <v>       0.29032258       0.12903226       0.00000000 </v>
   <v>       0.32258065       0.12903226       0.00000000 </v>
   <v>       0.35483871       0.12903226       0.00000000 </v>
   <v>       0.38709677       0.12903226       0.00000000 </v>
   <v>       0.41935484       0.12903226       0.00000000 </v>
   <v>       0.45161290       0.12903226       0.00000000 </v>
   <v>       0.48387097       0.12903226       0.00000000 </v>
   <v>      -0.48387097       0.12903226       0.00000000 </v>
   <v>      -0.45161290       0.12903226       0.00000000 </v>
   <v>      -0.41935484       0.12903226       0.00000000 </v>
   <v>      -0.38709677       0.12903226       0.00000000 </v>
   <v>      -0.35483871       0.12903226       0.00000000 </v>
   <v>      -0.32258065       0.12903226       0.00000000 </v>
   <v>      -0.29032258       0.12903226       0.00000000 </v>
   <v>      -0.25806452       0.12903226       0.00000000 </v>
   <v>      -0.22580645       0.12903226       0.00000000 </v>
   <v>      -0.19354839       0.12903226       0.00000000 </v>
   <v>      -0.16129032       0.12903226       0.00000000 </v>
   <v>      -0.12903226       0.12903226       0.00000000 </v>
   <v>       0.16129032       0.16129032       0.00000000 </v>
   <v>       0.19354839       0.16129032       0.00000000 </v>
   <v>       0.22580645       0.16129032       0.00000000 </v>
   <v>       0.25806452       0.16129032       0.00000000 </v>
   <v>       0.29032258       0.16129032       0.00000000 </v>
   <v>       0.32258065       0.16129032       0.00000000 </v>
   <v>       0.35483871       0.16129032       0.00000000 </v>
   <v>       0.38709677       0.16129032       0.00000000 </v>
   <v>       0.41935484       0.16129032       0.00000000 </v>
   <v>       0.45161290       0.16129032       0.00000000 </v>
   <v>       0.48387097       0.16129032       0.00000000 </v>
   <v>      -0.48387097       0.16129032       0.00000000 </v>
   <v>      -0.45161290       0.16129032       0.00000000 </v>
   <v>      -0.41935484       0.16129032       0.00000000 </v>
   <v>      -0.38709677       0.16129032       0.00000000 </v>
   <v>      -0.35483871       0.16129032       0.00000000 </v>
   <v>      -0.32258065       0.16129032       0.00000000 </v>
   <v>      -0.29032258       0.16129032       0.00000000 </v>
   <v>      -0.25806452       0.16129032       0.00000000 </v>
   <v>      -0.22580645       0.16129032       0.00000000 </v>
   <v>      -0.19354839       0.16129032       0.00000000 </v>
   <v>      -0.16129032       0.16129032       0.00000000 </v>
   <v>       0.19354839       0.19354839       0.00000000 </v>
   <v>       0.22580645       0.19354839       0.00000000 </v>
   <v>       0.25806452       0.19354839       0.00000000 </v>
   <v>       0.29032258       0.19354839       0.00000000 </v>
   <v>       0.32258065       0.19354839       0.00000000 </v>
   <v>       0.35483871       0.19354839       0.00000000 </v>
   <v>       0.38709677       0.19354839       0.00000000 </v>
   <v>       0.41935484       0.19354839       0.00000000 </v>
   <v>       0.45161290       0.19354839       0.00000000 </v>
   <v>       0.48387097       0.19354839       0.00000000 </v>
   <v>      -0.48387097       0.19354839       0.00000000 </v>
   <v>      -0.45161290       0.19354839       0.00000000 </v>
   <v>      -0.41935484       0.19354839       0.00000000 </v>
   <v>      -0.38709677       0.19354839       0.00000000 </v>
   <v>      -0.35483871       0.19354839       0.00000000 </v>
   <v>      -0.32258065       0.19354839       0.00000000 </v>
   <v>      -0.29032258       0.19354839       0.00000000 </v>
   <v>      -0.25806452       0.19354839       0.00000000 </v>
   <v>      -0.22580645       0.19354839       0.00000000 </v>
   <v>      -0.19354839       0.19354839       0.00000000 </v>
   <v>       0.22580645       0.22580645       0.00000000 </v>
   <v>       0.25806452       0.22580645       0.00000000 </v>
   <v>       0.29032258       0.22580645       0.00000000 </v>
   <v>       0.32258065       0.22580645       0.00000000 </v>
   <v>       0.35483871       0.22580645       0.00000000 </v>
   <v>       0.38709677       0.22580645       0.00000000 </v>
   <v>       0.41935484       0.22580645       0.00000000 </v>
   <v>       0.45161290       0.22580645       0.00000000 </v>
   <v>       0.48387097       0.22580645       0.00000000 </v>
   <v>      -0.48387097       0.22580645       0.00000000 </v>
   <v>      -0.45161290       0.22580645       0.00000000 </v>
   <v>      -0.41935484       0.22580645       0.00000000 </v>
   <v>      -0.38709677       0.22580645       0.00000000 </v>
   <v>      -0.35483871       0.22580645       0.00000000 </v>
   <v>      -0.32258065       0.22580645       0.00000000 </v>
   <v>      -0.29032258       0.22580645       0.00000000 </v>
   <v>      -0.25806452       0.22580645       0.00000000 </v>
   <v>      -0.22580645       0.22580645       0.00000000 </v>
   <v>       0.25806452       0.25806452       0.00000000 </v>
   <v>       0.29032258       0.25806452       0.00000000 </v>
   <v>       0.32258065       0.25806452       0.00000000 </v>
   <v>       0.35483871       0.25806452       0.00000000 </v>
   <v>       0.38709677       0.25806452       0.00000000 </v>
   <v>       0.41935484       0.25806452       0.00000000 </v>
   <v>       0.45161290       0.25806452       0.00000000 </v>
   <v>       0.48387097       0.25806452       0.00000000 </v>
   <v>      -0.48387097       0.25806452       0.00000000 </v>
   <v>      -0.45161290       0.25806452       0.00000000 </v>
   <v>      -0.41935484       0.25806452       0.00000000 </v>
   <v>      -0.38709677       0.25806452       0.00000000 </v>
   <v>      -0.35483871       0.25806452       0.00000000 </v>
   <v>      -0.32258065       0.25806452       0.00000000 </v>
   <v>      -0.29032258       0.25806452       0.00000000 </v>
   <v>      -0.25806452       0.25806452       0.00000000 </v>
   <v>       0.29032258       0.29032258       0.00000000 </v>
   <v>       0.32258065       0.29032258       0.00000000 </v>
   <v>       0.35483871       0.29032258       0.00000000 </v>
   <v>       0.38709677       0.29032258       0.00000000 </v>
   <v>       0.41935484       0.29032258       0.00000000 </v>
   <v>       0.45161290       0.29032258       0.00000000 </v>
   <v>       0.48387097       0.29032258       0.00000000 </v>
   <v>      -0.48387097       0.29032258       0.00000000 </v>
   <v>      -0.45161290       0.29032258       0.00000000 </v>
   <v>      -0.41935484       0.29032258       0.00000000 </v>
   <v>      -0.38709677       0.29032258       0.00000000 </v>
   <v>      -0.35483871       0.29032258       0.00000000 </v>
   <v>      -0.32258065       0.29032258       0.00000000 </v>
   <v>      -0.29032258       0.29032258       0.00000000 </v>
   <v>       0.32258065       0.32258065       0.00000000 </v>
   <v>       0.35483871       0.32258065       0.00000000 </v>
   <v>       0.38709677       0.32258065       0.00000000 </v>
   <v>       0.41935484       0.32258065       0.00000000 </v>
   <v>       0.45161290       0.32258065       0.00000000 </v>
   <v>       0.48387097       0.32258065       0.00000000 </v>
   <v>      -0.48387097       0.32258065       0.00000000 </v>
   <v>      -0.45161290       0.32258065       0.00000000 </v>
   <v>      -0.41935484       0.32258065       0.00000000 </v>
   <v>      -0.38709677       0.32258065       0.00000000 </v>
   <v>      -0.35483871       0.32258065       0.00000000 </v>
   <v>      -0.32258065       0.32258065       0.00000000 </v>
   <v>       0.35483871       0.35483871       0.00000000 </v>
   <v>       0.38709677       0.35483871       0.00000000 </v>
   <v>       0.41935484       0.35483871       0.00000000 </v>
   <v>       0.45161290       0.35483871       0.00000000 </v>
   <v>       0.48387097       0.35483871       0.00000000 </v>
   <v>      -0.48387097       0.35483871       0.00000000 </v>
   <v>      -0.45161290       0.35483871       0.00000000 </v>
   <v>      -0.41935484       0.35483871       0.00000000 </v>
   <v>      -0.38709677       0.35483871       0.00000000 </v>
   <v>      -0.35483871       0.35483871       0.00000000 </v>
   <v>       0.38709677       0.38709677       0.00000000 </v>
   <v>       0.41935484       0.38709677       0.00000000 </v>
   <v>       0.45161290       0.38709677       0.00000000 </v>
   <v>       0.48387097       0.38709677       0.00000000 </v>
   <v>      -0.48387097       0.38709677       0.00000000 </v>
   <v>      -0.45161290       0.38709677       0.00000000 </v>
   <v>      -0.41935484       0.38709677       0.00000000 </v>
   <v>      -0.38709677       0.38709677       0.00000000 </v>
   <v>       0.41935484       0.41935484       0.00000000 </v>
   <v>       0.45161290       0.41935484       0.00000000 </v>
   <v>       0.48387097       0.41935484       0.00000000 </v>
   <v>      -0.48387097       0.41935484       0.00000000 </v>
   <v>      -0.45161290       0.41935484       0.00000000 </v>
   <v>      -0.41935484       0.41935484       0.00000000 </v>
   <v>       0.45161290       0.45161290       0.00000000 </v>
   <v>       0.48387097       0.45161290       0.00000000 </v>
   <v>      -0.48387097       0.45161290       0.00000000 </v>
   <v>      -0.45161290       0.45161290       0.00000000 </v>
   <v>       0.48387097       0.48387097       0.00000000 </v>
   <v>      -0.48387097       0.48387097       0.00000000 </v>
   <v>       0.09677419       0.06451613       0.03225806 </v>
   <v>       0.12903226       0.06451613       0.03225806 </v>
   <v>       0.16129032       0.06451613       0.03225806 </v>
   <v>       0.19354839       0.06451613       0.03225806 </v>
   <v>       0.22580645       0.06451613       0.03225806 </v>
   <v>       0.25806452       0.06451613       0.03225806 </v>
   <v>       0.29032258       0.06451613       0.03225806 </v>
   <v>       0.32258065       0.06451613       0.03225806 </v>
   <v>       0.35483871       0.06451613       0.03225806 </v>
   <v>       0.38709677       0.06451613       0.03225806 </v>
   <v>       0.41935484       0.06451613       0.03225806 </v>
   <v>       0.45161290       0.06451613       0.03225806 </v>
   <v>       0.48387097       0.06451613       0.03225806 </v>
   <v>      -0.48387097       0.06451613       0.03225806 </v>
   <v>       0.12903226       0.09677419       0.03225806 </v>
   <v>       0.16129032       0.09677419       0.03225806 </v>
   <v>       0.19354839       0.09677419       0.03225806 </v>
   <v>       0.22580645       0.09677419       0.03225806 </v>
   <v>       0.25806452       0.09677419       0.03225806 </v>
   <v>       0.29032258       0.09677419       0.03225806 </v>
   <v>       0.32258065       0.09677419       0.03225806 </v>
   <v>       0.35483871       0.09677419       0.03225806 </v>
   <v>       0.38709677       0.09677419       0.03225806 </v>
   <v>       0.41935484       0.09677419       0.03225806 </v>
   <v>       0.45161290       0.09677419       0.03225806 </v>
   <v>       0.48387097       0.09677419       0.03225806 </v>
   <v>      -0.48387097       0.09677419       0.03225806 </v>
   <v>      -0.45161290       0.09677419       0.03225806 </v>
   <v>      -0.41935484       0.09677419       0.03225806 </v>
   <v>      -0.38709677       0.09677419       0.03225806 </v>
   <v>      -0.35483871       0.09677419       0.03225806 </v>
   <v>      -0.32258065       0.09677419       0.03225806 </v>
   <v>      -0.29032258       0.09677419       0.03225806 </v>
   <v>      -0.25806452       0.09677419       0.03225806 </v>
   <v>      -0.22580645       0.09677419       0.03225806 </v>
   <v>      -0.19354839       0.09677419       0.03225806 </v>
   <v>      -0.16129032       0.09677419       0.03225806 </v>
   <v>      -0.12903226       0.09677419       0.03225806 </v>
   <v>      -0.09677419       0.09677419       0.03225806 </v>
   <v>      -0.06451613       0.09677419       0.03225806 </v>
   <v>       0.16129032       0.12903226       0.03225806 </v>
   <v>       0.19354839       0.12903226       0.03225806 </v>
   <v>       0.22580645       0.12903226       0.03225806 </v>
   <v>       0.25806452       0.12903226       0.03225806 </v>
   <v>       0.29032258       0.12903226       0.03225806 </v>
   <v>       0.32258065       0.12903226       0.03225806 </v>
   <v>       0.35483871       0.12903226       0.03225806 </v>
   <v>       0.38709677       0.12903226       0.03225806 </v>
   <v>       0.41935484       0.12903226       0.03225806 </v>
   <v>       0.45161290       0.12903226       0.03225806 </v>
   <v>       0.48387097       0.12903226       0.03225806 </v>
   <v>      -0.48387097       0.12903226       0.03225806 </v>
   <v>      -0.45161290       0.12903226       0.03225806 </v>
   <v>      -0.41935484       0.12903226       0.03225806 </v>
   <v>      -0.38709677       0.12903226       0.03225806 </v>
   <v>      -0.35483871       0.12903226       0.03225806 </v>
   <v>      -0.32258065       0.12903226       0.03225806 </v>
   <v>      -0.29032258       0.12903226       0.03225806 </v>
   <v>      -0.25806452       0.12903226       0.03225806 </v>
   <v>      -0.22580645       0.12903226       0.03225806 </v>
   <v>      -0.19354839       0.12903226       0.03225806 </v>
   <v>      -0.16129032       0.12903226       0.03225806 </v>
   <v>      -0.12903226       0.12903226       0.03225806 </v>
   <v>      -0.09677419       0.12903226       0.03225806 </v>
   <v>       0.19354839       0.16129032       0.03225806 </v>
   <v>       0.22580645       0.16129032       0.03225806 </v>
   <v>       0.25806452       0.16129032       0.03225806 </v>
   <v>       0.29032258       0.16129032       0.03225806 </v>
   <v>       0.32258065       0.16129032       0.03225806 </v>
   <v>       0.35483871       0.16129032       0.03225806 </v>
   <v>       0.38709677       0.16129032       0.03225806 </v>
   <v>       0.41935484       0.16129032       0.03225806 </v>
   <v>       0.45161290       0.16129032       0.03225806 </v>
   <v>       0.48387097       0.16129032       0.03225806 </v>
   <v>      -0.48387097       0.16129032       0.03225806 </v>
   <v>      -0.45161290       0.16129032       0.03225806 </v>
   <v>      -0.41935484       0.16129032       0.03225806 </v>
   <v>      -0.38709677       0.16129032       0.03225806 </v>
   <v>      -0.35483871       0.16129032       0.03225806 </v>
   <v>      -0.32258065       0.16129032       0.03225806 </v>
   <v>      -0.29032258       0.16129032       0.03225806 </v>
   <v>      -0.25806452       0.16129032       0.03225806 </v>
   <v>      -0.22580645       0.16129032       0.03225806 </v>
   <v>      -0.19354839       0.16129032       0.03225806 </v>
   <v>      -0.16129032       0.16129032       0.03225806 </v>
   <v>      -0.12903226       0.16129032       0.03225806 </v>
   <v>       0.22580645       0.19354839       0.03225806 </v>
   <v>       0.25806452       0.19354839       0.03225806 </v>
   <v>       0.29032258       0.19354839       0.03225806 </v>
   <v>       0.32258065       0.19354839       0.03225806 </v>
   <v>       0.35483871       0.19354839       0.03225806 </v>
   <v>       0.38709677       0.19354839       0.03225806 </v>
   <v>       0.41935484       0.19354839       0.03225806 </v>
   <v>       0.45161290       0.19354839       0.03225806 </v>
   <v>       0.48387097       0.19354839       0.03225806 </v>
   <v>      -0.48387097       0.19354839       0.03225806 </v>
   <v>      -0.45161290       0.19354839       0.03225806 </v>
   <v>      -0.41935484       0.19354839       0.03225806 </v>
   <v>      -0.38709677       0.19354839       0.03225806 </v>
   <v>      -0.35483871       0.19354839       0.03225806 </v>
   <v>      -0.32258065       0.19354839       0.03225806 </v>
   <v>      -0.29032258       0.19354839       0.03225806 </v>
   <v>      -0.25806452       0.19354839       0.03225806 </v>
   <v>      -0.22580645       0.19354839       0.03225806 </v>
   <v>      -0.19354839       0.19354839       0.03225806 </v>
   <v>      -0.16129032       0.19354839       0.03225806 </v>
   <v>       0.25806452       0.22580645       0.03225806 </v>
   <v>       0.29032258       0.22580645       0.03225806 </v>
   <v>       0.32258065       0.22580645       0.03225806 </v>
   <v>       0.35483871       0.22580645       0.03225806 </v>
   <v>       0.38709677       0.22580645       0.03225806 </v>
   <v>       0.41935484       0.22580645       0.03225806 </v>
   <v>       0.45161290       0.22580645       0.03225806 </v>
   <v>       0.48387097       0.22580645       0.03225806 </v>
   <v>      -0.48387097       0.22580645       0.03225806 </v>
   <v>      -0.45161290       0.22580645       0.03225806 </v>
   <v>      -0.41935484       0.22580645       0.03225806 </v>
   <v>      -0.38709677       0.22580645       0.03225806 </v>
   <v>      -0.35483871       0.22580645       0.03225806 </v>
   <v>      -0.32258065       0.22580645       0.03225806 </v>
   <v>      -0.29032258       0.22580645       0.03225806 </v>
   <v>      -0.25806452       0.22580645       0.03225806 </v>
   <v>      -0.22580645       0.22580645       0.03225806 </v>
   <v>      -0.19354839       0.22580645       0.03225806 </v>
   <v>       0.29032258       0.25806452       0.03225806 </v>
   <v>       0.32258065       0.25806452       0.03225806 </v>
   <v>       0.35483871       0.25806452       0.03225806 </v>
   <v>       0.38709677       0.25806452       0.03225806 </v>
   <v>       0.41935484       0.25806452       0.03225806 </v>
   <v>       0.45161290       0.25806452       0.03225806 </v>
   <v>       0.48387097       0.25806452       0.03225806 </v>
   <v>      -0.48387097       0.25806452       0.03225806 </v>
   <v>      -0.45161290       0.25806452       0.03225806 </v>
   <v>      -0.41935484       0.25806452       0.03225806 </v>
   <v>      -0.38709677       0.25806452       0.03225806 </v>
   <v>      -0.35483871       0.25806452       0.03225806 </v>
   <v>      -0.32258065       0.25806452       0.03225806 </v>
   <v>      -0.29032258       0.25806452       0.03225806 </v>
   <v>      -0.25806452       0.25806452       0.03225806 </v>
   <v>      -0.22580645       0.25806452       0.03225806 </v>
   <v>       0.32258065       0.29032258       0.03225806 </v>
   <v>       0.35483871       0.29032258       0.03225806 </v>
   <v>       0.38709677       0.29032258       0.03225806 </v>
   <v>       0.41935484       0.29032258       0.03225806 </v>
   <v>       0.45161290       0.29032258       0.03225806 </v>
   <v>       0.48387097       0.29032258       0.03225806 </v>
   <v>      -0.48387097       0.29032258       0.03225806 </v>
   <v>      -0.45161290       0.29032258       0.03225806 </v>
   <v>      -0.41935484       0.29032258       0.03225806 </v>
   <v>      -0.38709677       0.29032258       0.03225806 </v>
   <v>      -0.35483871       0.29032258       0.03225806 </v>
   <v>      -0.32258065       0.29032258       0.03225806 </v>
   <v>      -0.29032258       0.29032258       0.03225806 </v>
   <v>      -0.25806452       0.29032258       0.03225806 </v>
   <v>       0.35483871       0.32258065       0.03225806 </v>
   <v>       0.38709677       0.32258065       0.03225806 </v>
   <v>       0.41935484       0.32258065       0.03225806 </v>
   <v>       0.45161290       0.32258065       0.03225806 </v>
   <v>       0.48387097       0.32258065       0.03225806 </v>
   <v>      -0.48387097       0.32258065       0.03225806 </v>
   <v>      -0.45161290       0.32258065       0.03225806 </v>
   <v>      -0.41935484       0.32258065       0.03225806 </v>
   <v>      -0.38709677       0.32258065       0.03225806 </v>
   <v>      -0.35483871       0.32258065       0.03225806 </v>
   <v>      -0.32258065       0.32258065       0.03225806 </v>
   <v>      -0.29032258       0.32258065       0.03225806 </v>
   <v>       0.38709677       0.35483871       0.03225806 </v>
   <v>       0.41935484       0.35483871       0.03225806 </v>
   <v>       0.45161290       0.35483871       0.03225806 </v>
   <v>       0.48387097       0.35483871       0.03225806 </v>
   <v>      -0.48387097       0.35483871       0.03225806 </v>
   <v>      -0.45161290       0.35483871       0.03225806 </v>
   <v>      -0.41935484       0.35483871       0.03225806 </v>
   <v>      -0.38709677       0.35483871       0.03225806 </v>
   <v>      -0.35483871       0.35483871       0.03225806 </v>
   <v>      -0.32258065       0.35483871       0.03225806 </v>
   <v>       0.41935484       0.38709677       0.03225806 </v>
   <v>       0.45161290       0.38709677       0.03225806 </v>
   <v>       0.48387097       0.38709677       0.03225806 </v>
   <v>      -0.48387097       0.38709677       0.03225806 </v>
   <v>      -0.45161290       0.38709677       0.03225806 </v>
   <v>      -0.41935484       0.38709677       0.03225806 </v>
   <v>      -0.38709677       0.38709677       0.03225806 </v>
   <v>      -0.35483871       0.38709677       0.03225806 </v>
   <v>       0.45161290       0.41935484       0.03225806 </v>
   <v>       0.48387097       0.41935484       0.03225806 </v>
   <v>      -0.48387097       0.41935484       0.03225806 </v>
   <v>      -0.45161290       0.41935484       0.03225806 </v>
   <v>      -0.41935484       0.41935484       0.03225806 </v>
   <v>      -0.38709677       0.41935484       0.03225806 </v>
   <v>       0.48387097       0.45161290       0.03225806 </v>
   <v>      -0.48387097       0.45161290       0.03225806 </v>
   <v>      -0.45161290       0.45161290       0.03225806 </v>
   <v>      -0.41935484       0.45161290       0.03225806 </v>
   <v>      -0.48387097       0.48387097       0.03225806 </v>
   <v>      -0.45161290       0.48387097       0.03225806 </v>
   <v>       0.19354839       0.12903226       0.06451613 </v>
   <v>       0.22580645       0.12903226       0.06451613 </v>
   <v>       0.25806452       0.12903226       0.06451613 </v>
   <v>       0.29032258       0.12903226       0.06451613 </v>
   <v>       0.32258065       0.12903226       0.06451613 </v>
   <v>       0.35483871       0.12903226       0.06451613 </v>
   <v>       0.38709677       0.12903226       0.06451613 </v>
   <v>       0.41935484       0.12903226       0.06451613 </v>
   <v>       0.45161290       0.12903226       0.06451613 </v>
   <v>       0.48387097       0.12903226       0.06451613 </v>
   <v>      -0.48387097       0.12903226       0.06451613 </v>
   <v>      -0.45161290       0.12903226       0.06451613 </v>
   <v>       0.22580645       0.16129032       0.06451613 </v>
   <v>       0.25806452       0.16129032       0.06451613 </v>
   <v>       0.29032258       0.16129032       0.06451613 </v>
   <v>       0.32258065       0.16129032       0.06451613 </v>
   <v>       0.35483871       0.16129032       0.06451613 </v>
   <v>       0.38709677       0.16129032       0.06451613 </v>
   <v>       0.41935484       0.16129032       0.06451613 </v>
   <v>       0.45161290       0.16129032       0.06451613 </v>
   <v>       0.48387097       0.16129032       0.06451613 </v>
   <v>      -0.48387097       0.16129032       0.06451613 </v>
   <v>      -0.45161290       0.16129032       0.06451613 </v>
   <v>      -0.41935484       0.16129032       0.06451613 </v>
   <v>      -0.38709677       0.16129032       0.06451613 </v>
   <v>      -0.35483871       0.16129032       0.06451613 </v>
   <v>      -0.32258065       0.16129032       0.06451613 </v>
   <v>      -0.29032258       0.16129032       0.06451613 </v>
   <v>      -0.25806452       0.16129032       0.06451613 </v>
   <v>      -0.22580645       0.16129032       0.06451613 </v>
   <v>      -0.19354839       0.16129032       0.06451613 </v>
   <v>      -0.16129032       0.16129032       0.06451613 </v>
   <v>      -0.12903226       0.16129032       0.06451613 </v>
   <v>      -0.09677419       0.16129032       0.06451613 </v>
   <v>       0.25806452       0.19354839       0.06451613 </v>
   <v>       0.29032258       0.19354839       0.06451613 </v>
   <v>       0.32258065       0.19354839       0.06451613 </v>
   <v>       0.35483871       0.19354839       0.06451613 </v>
   <v>       0.38709677       0.19354839       0.06451613 </v>
   <v>       0.41935484       0.19354839       0.06451613 </v>
   <v>       0.45161290       0.19354839       0.06451613 </v>
   <v>       0.48387097       0.19354839       0.06451613 </v>
   <v>      -0.48387097       0.19354839       0.06451613 </v>
   <v>      -0.45161290       0.19354839       0.06451613 </v>
   <v>      -0.41935484       0.19354839       0.06451613 </v>
   <v>      -0.38709677       0.19354839       0.06451613 </v>
   <v>      -0.35483871       0.19354839       0.06451613 </v>
   <v>      -0.32258065       0.19354839       0.06451613 </v>
   <v>      -0.29032258       0.19354839       0.06451613 </v>
   <v>      -0.25806452       0.19354839       0.06451613 </v>
   <v>      -0.22580645       0.19354839       0.06451613 </v>
   <v>      -0.19354839       0.19354839       0.06451613 </v>
   <v>      -0.16129032       0.19354839       0.06451613 </v>
   <v>      -0.12903226       0.19354839       0.06451613 </v>
   <v>       0.29032258       0.22580645       0.06451613 </v>
   <v>       0.32258065       0.22580645       0.06451613 </v>
   <v>       0.35483871       0.22580645       0.06451613 </v>
   <v>       0.38709677       0.22580645       0.06451613 </v>
   <v>       0.41935484       0.22580645       0.06451613 </v>
   <v>       0.45161290       0.22580645       0.06451613 </v>
   <v>       0.48387097       0.22580645       0.06451613 </v>
   <v>      -0.48387097       0.22580645       0.06451613 </v>
   <v>      -0.45161290       0.22580645       0.06451613 </v>
   <v>      -0.41935484       0.22580645       0.06451613 </v>
   <v>      -0.38709677       0.22580645       0.06451613 </v>
   <v>      -0.35483871       0.22580645       0.06451613 </v>
   <v>      -0.32258065       0.22580645       0.06451613 </v>
   <v>      -0.29032258       0.22580645       0.06451613 </v>
   <v>      -0.25806452       0.22580645       0.06451613 </v>
   <v>      -0.22580645       0.22580645       0.06451613 </v>
   <v>      -0.19354839       0.22580645       0.06451613 </v>
   <v>      -0.16129032       0.22580645       0.06451613 </v>
   <v>       0.32258065       0.25806452       0.06451613 </v>
   <v>       0.35483871       0.25806452       0.06451613 </v>
   <v>       0.38709677       0.25806452       0.06451613 </v>
   <v>       0.41935484       0.25806452       0.06451613 </v>
   <v>       0.45161290       0.25806452       0.06451613 </v>
   <v>       0.48387097       0.25806452       0.06451613 </v>
   <v>      -0.48387097       0.25806452       0.06451613 </v>
   <v>      -0.45161290       0.25806452       0.06451613 </v>
   <v>      -0.41935484       0.25806452       0.06451613 </v>
   <v>      -0.38709677       0.25806452       0.06451613 </v>
   <v>      -0.35483871       0.25806452       0.06451613 </v>
   <v>      -0.32258065       0.25806452       0.06451613 </v>
   <v>      -0.29032258       0.25806452       0.06451613 </v>
   <v>      -0.25806452       0.25806452       0.06451613 </v>
   <v>      -0.22580645       0.25806452       0.06451613 </v>
   <v>      -0.19354839       0.25806452       0.06451613 </v>
   <v>       0.35483871       0.29032258       0.06451613 </v>
   <v>       0.38709677       0.29032258       0.06451613 </v>
   <v>       0.41935484       0.29032258       0.06451613 </v>
   <v>       0.45161290       0.29032258       0.06451613 </v>
   <v>       0.48387097       0.29032258       0.06451613 </v>
   <v>      -0.48387097       0.29032258       0.06451613 </v>
   <v>      -0.45161290       0.29032258       0.06451613 </v>
   <v>      -0.41935484       0.29032258       0.06451613 </v>
   <v>      -0.38709677       0.29032258       0.06451613 </v>
   <v>      -0.35483871       0.29032258       0.06451613 </v>
   <v>      -0.32258065       0.29032258       0.06451613 </v>
   <v>      -0.29032258       0.29032258       0.06451613 </v>
   <v>      -0.25806452       0.29032258       0.06451613 </v>
   <v>      -0.22580645       0.29032258       0.06451613 </v>
   <v>       0.38709677       0.32258065       0.06451613 </v>
   <v>       0.41935484       0.32258065       0.06451613 </v>
   <v>       0.45161290       0.32258065       0.06451613 </v>
   <v>       0.48387097       0.32258065       0.06451613 </v>
   <v>      -0.48387097       0.32258065       0.06451613 </v>
   <v>      -0.45161290       0.32258065       0.06451613 </v>
   <v>      -0.41935484       0.32258065       0.06451613 </v>
   <v>      -0.38709677       0.32258065       0.06451613 </v>
   <v>      -0.35483871       0.32258065       0.06451613 </v>
   <v>      -0.32258065       0.32258065       0.06451613 </v>
   <v>      -0.29032258       0.32258065       0.06451613 </v>
   <v>      -0.25806452       0.32258065       0.06451613 </v>
   <v>       0.41935484       0.35483871       0.06451613 </v>
   <v>       0.45161290       0.35483871       0.06451613 </v>
   <v>       0.48387097       0.35483871       0.06451613 </v>
   <v>      -0.48387097       0.35483871       0.06451613 </v>
   <v>      -0.45161290       0.35483871       0.06451613 </v>
   <v>      -0.41935484       0.35483871       0.06451613 </v>
   <v>      -0.38709677       0.35483871       0.06451613 </v>
   <v>      -0.35483871       0.35483871       0.06451613 </v>
   <v>      -0.32258065       0.35483871       0.06451613 </v>
   <v>      -0.29032258       0.35483871       0.06451613 </v>
   <v>       0.45161290       0.38709677       0.06451613 </v>
   <v>       0.48387097       0.38709677       0.06451613 </v>
   <v>      -0.48387097       0.38709677       0.06451613 </v>
   <v>      -0.45161290       0.38709677       0.06451613 </v>
   <v>      -0.41935484       0.38709677       0.06451613 </v>
   <v>      -0.38709677       0.38709677       0.06451613 </v>
   <v>      -0.35483871       0.38709677       0.06451613 </v>
   <v>      -0.32258065       0.38709677       0.06451613 </v>
   <v>       0.48387097       0.41935484       0.06451613 </v>
   <v>      -0.48387097       0.41935484       0.06451613 </v>
   <v>      -0.45161290       0.41935484       0.06451613 </v>
   <v>      -0.41935484       0.41935484       0.06451613 </v>
   <v>      -0.38709677       0.41935484       0.06451613 </v>
   <v>      -0.35483871       0.41935484       0.06451613 </v>
   <v>      -0.48387097       0.45161290       0.06451613 </v>
   <v>      -0.45161290       0.45161290       0.06451613 </v>
   <v>      -0.41935484       0.45161290       0.06451613 </v>
   <v>      -0.38709677       0.45161290       0.06451613 </v>
   <v>      -0.45161290       0.48387097       0.06451613 </v>
   <v>      -0.41935484       0.48387097       0.06451613 </v>
   <v>       0.29032258       0.19354839       0.09677419 </v>
   <v>       0.32258065       0.19354839       0.09677419 </v>
   <v>       0.35483871       0.19354839       0.09677419 </v>
   <v>       0.38709677       0.19354839       0.09677419 </v>
   <v>       0.41935484       0.19354839       0.09677419 </v>
   <v>       0.45161290       0.19354839       0.09677419 </v>
   <v>       0.48387097       0.19354839       0.09677419 </v>
   <v>      -0.48387097       0.19354839       0.09677419 </v>
   <v>      -0.45161290       0.19354839       0.09677419 </v>
   <v>      -0.41935484       0.19354839       0.09677419 </v>
   <v>       0.32258065       0.22580645       0.09677419 </v>
   <v>       0.35483871       0.22580645       0.09677419 </v>
   <v>       0.38709677       0.22580645       0.09677419 </v>
   <v>       0.41935484       0.22580645       0.09677419 </v>
   <v>       0.45161290       0.22580645       0.09677419 </v>
   <v>       0.48387097       0.22580645       0.09677419 </v>
   <v>      -0.48387097       0.22580645       0.09677419 </v>
   <v>      -0.45161290       0.22580645       0.09677419 </v>
   <v>      -0.41935484       0.22580645       0.09677419 </v>
   <v>      -0.38709677       0.22580645       0.09677419 </v>
   <v>      -0.35483871       0.22580645       0.09677419 </v>
   <v>      -0.32258065       0.22580645       0.09677419 </v>
   <v>      -0.29032258       0.22580645       0.09677419 </v>
   <v>      -0.25806452       0.22580645       0.09677419 </v>
   <v>      -0.22580645       0.22580645       0.09677419 </v>
   <v>      -0.19354839       0.22580645       0.09677419 </v>
   <v>      -0.16129032       0.22580645       0.09677419 </v>
   <v>      -0.12903226       0.22580645       0.09677419 </v>
   <v>       0.35483871       0.25806452       0.09677419 </v>
   <v>       0.38709677       0.25806452       0.09677419 </v>
   <v>       0.41935484       0.25806452       0.09677419 </v>
   <v>       0.45161290       0.25806452       0.09677419 </v>
   <v>       0.48387097       0.25806452       0.09677419 </v>
   <v>      -0.48387097       0.25806452       0.09677419 </v>
   <v>      -0.45161290       0.25806452       0.09677419 </v>
   <v>      -0.41935484       0.25806452       0.09677419 </v>
   <v>      -0.38709677       0.25806452       0.09677419 </v>
   <v>      -0.35483871       0.25806452       0.09677419 </v>
   <v>      -0.32258065       0.25806452       0.09677419 </v>
   <v>      -0.29032258       0.25806452       0.09677419 </v>
   <v>      -0.25806452       0.25806452       0.09677419 </v>
   <v>      -0.22580645       0.25806452       0.09677419 </v>
   <v>      -0.19354839       0.25806452       0.09677419 </v>
   <v>      -0.16129032       0.25806452       0.09677419 </v>
   <v>       0.38709677       0.29032258       0.09677419 </v>
   <v>       0.41935484       0.29032258       0.09677419 </v>
   <v>       0.45161290       0.29032258       0.09677419 </v>
   <v>       0.48387097       0.29032258       0.09677419 </v>
   <v>      -0.48387097       0.29032258       0.09677419 </v>
   <v>      -0.45161290       0.29032258       0.09677419 </v>
   <v>      -0.41935484       0.29032258       0.09677419 </v>
   <v>      -0.38709677       0.29032258       0.09677419 </v>
   <v>      -0.35483871       0.29032258       0.09677419 </v>
   <v>      -0.32258065       0.29032258       0.09677419 </v>
   <v>      -0.29032258       0.29032258       0.09677419 </v>
   <v>      -0.25806452       0.29032258       0.09677419 </v>
   <v>      -0.22580645       0.29032258       0.09677419 </v>
   <v>      -0.19354839       0.29032258       0.09677419 </v>
   <v>       0.41935484       0.32258065       0.09677419 </v>
   <v>       0.45161290       0.32258065       0.09677419 </v>
   <v>       0.48387097       0.32258065       0.09677419 </v>
   <v>      -0.48387097       0.32258065       0.09677419 </v>
   <v>      -0.45161290       0.32258065       0.09677419 </v>
   <v>      -0.41935484       0.32258065       0.09677419 </v>
   <v>      -0.38709677       0.32258065       0.09677419 </v>
   <v>      -0.35483871       0.32258065       0.09677419 </v>
   <v>      -0.32258065       0.32258065       0.09677419 </v>
   <v>      -0.29032258       0.32258065       0.09677419 </v>
   <v>      -0.25806452       0.32258065       0.09677419 </v>
   <v>      -0.22580645       0.32258065       0.09677419 </v>
   <v>       0.45161290       0.35483871       0.09677419 </v>
   <v>       0.48387097       0.35483871       0.09677419 </v>
   <v>      -0.48387097       0.35483871       0.09677419 </v>
   <v>      -0.45161290       0.35483871       0.09677419 </v>
   <v>      -0.41935484       0.35483871       0.09677419 </v>
   <v>      -0.38709677       0.35483871       0.09677419 </v>
   <v>      -0.35483871       0.35483871       0.09677419 </v>
   <v>      -0.32258065       0.35483871       0.09677419 </v>
   <v>      -0.29032258       0.35483871       0.09677419 </v>
   <v>      -0.25806452       0.35483871       0.09677419 </v>
   <v>       0.48387097       0.38709677       0.09677419 </v>
   <v>      -0.48387097       0.38709677       0.09677419 </v>
   <v>      -0.45161290       0.38709677       0.09677419 </v>
   <v>      -0.41935484       0.38709677       0.09677419 </v>
   <v>      -0.38709677       0.38709677       0.09677419 </v>
   <v>      -0.35483871       0.38709677       0.09677419 </v>
   <v>      -0.32258065       0.38709677       0.09677419 </v>
   <v>      -0.29032258       0.38709677       0.09677419 </v>
   <v>      -0.48387097       0.41935484       0.09677419 </v>
   <v>      -0.45161290       0.41935484       0.09677419 </v>
   <v>      -0.41935484       0.41935484       0.09677419 </v>
   <v>      -0.38709677       0.41935484       0.09677419 </v>
   <v>      -0.35483871       0.41935484       0.09677419 </v>
   <v>      -0.32258065       0.41935484       0.09677419 </v>
   <v>      -0.45161290       0.45161290       0.09677419 </v>
   <v>      -0.41935484       0.45161290       0.09677419 </v>
   <v>      -0.38709677       0.45161290       0.09677419 </v>
   <v>      -0.35483871       0.45161290       0.09677419 </v>
   <v>      -0.41935484       0.48387097       0.09677419 </v>
   <v>      -0.38709677       0.48387097       0.09677419 </v>
   <v>       0.38709677       0.25806452       0.12903226 </v>
   <v>       0.41935484       0.25806452       0.12903226 </v>
   <v>       0.45161290       0.25806452       0.12903226 </v>
   <v>       0.48387097       0.25806452       0.12903226 </v>
   <v>      -0.48387097       0.25806452       0.12903226 </v>
   <v>      -0.45161290       0.25806452       0.12903226 </v>
   <v>      -0.41935484       0.25806452       0.12903226 </v>
   <v>      -0.38709677       0.25806452       0.12903226 </v>
   <v>       0.41935484       0.29032258       0.12903226 </v>
   <v>       0.45161290       0.29032258       0.12903226 </v>
   <v>       0.48387097       0.29032258       0.12903226 </v>
   <v>      -0.48387097       0.29032258       0.12903226 </v>
   <v>      -0.45161290       0.29032258       0.12903226 </v>
   <v>      -0.41935484       0.29032258       0.12903226 </v>
   <v>      -0.38709677       0.29032258       0.12903226 </v>
   <v>      -0.35483871       0.29032258       0.12903226 </v>
   <v>      -0.32258065       0.29032258       0.12903226 </v>
   <v>      -0.29032258       0.29032258       0.12903226 </v>
   <v>      -0.25806452       0.29032258       0.12903226 </v>
   <v>      -0.22580645       0.29032258       0.12903226 </v>
   <v>      -0.19354839       0.29032258       0.12903226 </v>
   <v>      -0.16129032       0.29032258       0.12903226 </v>
   <v>       0.45161290       0.32258065       0.12903226 </v>
   <v>       0.48387097       0.32258065       0.12903226 </v>
   <v>      -0.48387097       0.32258065       0.12903226 </v>
   <v>      -0.45161290       0.32258065       0.12903226 </v>
   <v>      -0.41935484       0.32258065       0.12903226 </v>
   <v>      -0.38709677       0.32258065       0.12903226 </v>
   <v>      -0.35483871       0.32258065       0.12903226 </v>
   <v>      -0.32258065       0.32258065       0.12903226 </v>
   <v>      -0.29032258       0.32258065       0.12903226 </v>
   <v>      -0.25806452       0.32258065       0.12903226 </v>
   <v>      -0.22580645       0.32258065       0.12903226 </v>
   <v>      -0.19354839       0.32258065       0.12903226 </v>
   <v>       0.48387097       0.35483871       0.12903226 </v>
   <v>      -0.48387097       0.35483871       0.12903226 </v>
   <v>      -0.45161290       0.35483871       0.12903226 </v>
   <v>      -0.41935484       0.35483871       0.12903226 </v>
   <v>      -0.38709677       0.35483871       0.12903226 </v>
   <v>      -0.35483871       0.35483871       0.12903226 </v>
   <v>      -0.32258065       0.35483871       0.12903226 </v>
   <v>      -0.29032258       0.35483871       0.12903226 </v>
   <v>      -0.25806452       0.35483871       0.12903226 </v>
   <v>      -0.22580645       0.35483871       0.12903226 </v>
   <v>      -0.48387097       0.38709677       0.12903226 </v>
   <v>      -0.45161290       0.38709677       0.12903226 </v>
   <v>      -0.41935484       0.38709677       0.12903226 </v>
   <v>      -0.38709677       0.38709677       0.12903226 </v>
   <v>      -0.35483871       0.38709677       0.12903226 </v>
   <v>      -0.32258065       0.38709677       0.12903226 </v>
   <v>      -0.29032258       0.38709677       0.12903226 </v>
   <v>      -0.25806452       0.38709677       0.12903226 </v>
   <v>      -0.45161290       0.41935484       0.12903226 </v>
   <v>      -0.41935484       0.41935484       0.12903226 </v>
   <v>      -0.38709677       0.41935484       0.12903226 </v>
   <v>      -0.35483871       0.41935484       0.12903226 </v>
   <v>      -0.32258065       0.41935484       0.12903226 </v>
   <v>      -0.29032258       0.41935484       0.12903226 </v>
   <v>      -0.41935484       0.45161290       0.12903226 </v>
   <v>      -0.38709677       0.45161290       0.12903226 </v>
   <v>      -0.35483871       0.45161290       0.12903226 </v>
   <v>      -0.32258065       0.45161290       0.12903226 </v>
   <v>      -0.38709677       0.48387097       0.12903226 </v>
   <v>      -0.35483871       0.48387097       0.12903226 </v>
   <v>       0.48387097       0.32258065       0.16129032 </v>
   <v>      -0.48387097       0.32258065       0.16129032 </v>
   <v>      -0.45161290       0.32258065       0.16129032 </v>
   <v>      -0.41935484       0.32258065       0.16129032 </v>
   <v>      -0.38709677       0.32258065       0.16129032 </v>
   <v>      -0.35483871       0.32258065       0.16129032 </v>
   <v>      -0.48387097       0.35483871       0.16129032 </v>
   <v>      -0.45161290       0.35483871       0.16129032 </v>
   <v>      -0.41935484       0.35483871       0.16129032 </v>
   <v>      -0.38709677       0.35483871       0.16129032 </v>
   <v>      -0.35483871       0.35483871       0.16129032 </v>
   <v>      -0.32258065       0.35483871       0.16129032 </v>
   <v>      -0.29032258       0.35483871       0.16129032 </v>
   <v>      -0.25806452       0.35483871       0.16129032 </v>
   <v>      -0.22580645       0.35483871       0.16129032 </v>
   <v>      -0.19354839       0.35483871       0.16129032 </v>
   <v>      -0.45161290       0.38709677       0.16129032 </v>
   <v>      -0.41935484       0.38709677       0.16129032 </v>
   <v>      -0.38709677       0.38709677       0.16129032 </v>
   <v>      -0.35483871       0.38709677       0.16129032 </v>
   <v>      -0.32258065       0.38709677       0.16129032 </v>
   <v>      -0.29032258       0.38709677       0.16129032 </v>
   <v>      -0.25806452       0.38709677       0.16129032 </v>
   <v>      -0.22580645       0.38709677       0.16129032 </v>
   <v>      -0.41935484       0.41935484       0.16129032 </v>
   <v>      -0.38709677       0.41935484       0.16129032 </v>
   <v>      -0.35483871       0.41935484       0.16129032 </v>
   <v>      -0.32258065       0.41935484       0.16129032 </v>
   <v>      -0.29032258       0.41935484       0.16129032 </v>
   <v>      -0.25806452       0.41935484       0.16129032 </v>
   <v>      -0.38709677       0.45161290       0.16129032 </v>
   <v>      -0.35483871       0.45161290       0.16129032 </v>
   <v>      -0.32258065       0.45161290       0.16129032 </v>
   <v>      -0.29032258       0.45161290       0.16129032 </v>
   <v>      -0.35483871       0.48387097       0.16129032 </v>
   <v>      -0.32258065       0.48387097       0.16129032 </v>
   <v>      -0.41935484       0.38709677       0.19354839 </v>
   <v>      -0.38709677       0.38709677       0.19354839 </v>
   <v>      -0.35483871       0.38709677       0.19354839 </v>
   <v>      -0.32258065       0.38709677       0.19354839 </v>
   <v>      -0.38709677       0.41935484       0.19354839 </v>
   <v>      -0.35483871       0.41935484       0.19354839 </v>
   <v>      -0.32258065       0.41935484       0.19354839 </v>
   <v>      -0.29032258       0.41935484       0.19354839 </v>
   <v>      -0.25806452       0.41935484       0.19354839 </v>
   <v>      -0.22580645       0.41935484       0.19354839 </v>
   <v>      -0.35483871       0.45161290       0.19354839 </v>
   <v>      -0.32258065       0.45161290       0.19354839 </v>
   <v>      -0.29032258       0.45161290       0.19354839 </v>
   <v>      -0.25806452       0.45161290       0.19354839 </v>
   <v>      -0.32258065       0.48387097       0.19354839 </v>
   <v>      -0.29032258       0.48387097       0.19354839 </v>
   <v>      -0.32258065       0.45161290       0.22580645 </v>
   <v>      -0.29032258       0.45161290       0.22580645 </v>
   <v>      -0.29032258       0.48387097       0.22580645 </v>
   <v>      -0.25806452       0.48387097       0.22580645 </v>
  </varray>
  <varray name="weights" >
   <v>       0.00003357 </v>
   <v>       0.00026854 </v>
   <v>       0.00026854 </v>
   <v>       0.00026854 </v>
   <v>       0.00026854 </v>
   <v>       0.00026854 </v>
   <v>       0.00026854 </v>
   <v>       0.00026854 </v>
   <v>       0.00026854 </v>
   <v>       0.00026854 </v>
   <v>       0.00026854 </v>
   <v>       0.00026854 </v>
   <v>       0.00026854 </v>
   <v>       0.00026854 </v>
   <v>       0.00026854 </v>
   <v>       0.00026854 </v>
   <v>       0.00020140 </v>
   <v>       0.00080561 </v>
   <v>       0.00080561 </v>
   <v>       0.00080561 </v>
   <v>       0.00080561 </v>
   <v>       0.00080561 </v>
   <v>       0.00080561 </v>
   <v>       0.00080561 </v>
   <v>       0.00080561 </v>
   <v>       0.00080561 </v>
   <v>       0.00080561 </v>
   <v>       0.00080561 </v>
   <v>       0.00080561 </v>
   <v>       0.00080561 </v>
   <v>       0.00080561 </v>
   <v>       0.00080561 </v>
   <v>       0.00080561 </v>
   <v>       0.00080561 </v>
   <v>       0.00080561 </v>
   <v>       0.00080561 </v>
   <v>       0.00080561 </v>
   <v>       0.00080561 </v>
   <v>       0.00080561 </v>
   <v>       0.00080561 </v>
   <v>       0.00080561 </v>
   <v>       0.00080561 </v>
   <v>       0.00080561 </v>
   <v>       0.00080561 </v>
   <v>       0.00080561 </v>
   <v>       0.00040281 </v>
   <v>       0.00020140 </v>
   <v>       0.00080561 </v>
   <v>       0.00080561 </v>
   <v>       0.00080561 </v>
   <v>       0.00080561 </v>
   <v>       0.00080561 </v>
   <v>       0.00080561 </v>
   <v>       0.00080561 </v>
   <v>       0.00080561 </v>
   <v>       0.00080561 </v>
   <v>       0.00080561 </v>
   <v>       0.00080561 </v>
   <v>       0.00080561 </v>
   <v>       0.00080561 </v>
   <v>       0.00080561 </v>
   <v>       0.00080561 </v>
   <v>       0.00080561 </v>
   <v>       0.00080561 </v>
   <v>       0.00080561 </v>
   <v>       0.00080561 </v>
   <v>       0.00080561 </v>
   <v>       0.00080561 </v>
   <v>       0.00080561 </v>
   <v>       0.00080561 </v>
   <v>       0.00080561 </v>
   <v>       0.00080561 </v>
   <v>       0.00080561 </v>
   <v>       0.00040281 </v>
   <v>       0.00020140 </v>
   <v>       0.00080561 </v>
   <v>       0.00080561 </v>
   <v>       0.00080561 </v>
   <v>       0.00080561 </v>
   <v>       0.00080561 </v>
   <v>       0.00080561 </v>
   <v>       0.00080561 </v>
   <v>       0.00080561 </v>
   <v>       0.00080561 </v>
   <v>       0.00080561 </v>
   <v>       0.00080561 </v>
   <v>       0.00080561 </v>
   <v>       0.00080561 </v>
   <v>       0.00080561 </v>
   <v>       0.00080561 </v>
   <v>       0.00080561 </v>
   <v>       0.00080561 </v>
   <v>       0.00080561 </v>
   <v>       0.00080561 </v>
   <v>       0.00080561 </v>
   <v>       0.00080561 </v>
   <v>       0.00080561 </v>
   <v>       0.00080561 </v>
   <v>       0.00080561 </v>
   <v>       0.00040281 </v>
   <v>       0.00020140 </v>
   <v>       0.00080561 </v>
   <v>       0.00080561 </v>
   <v>       0.00080561 </v>
   <v>       0.00080561 </v>
   <v>       0.00080561 </v>
   <v>       0.00080561 </v>
   <v>       0.00080561 </v>
   <v>       0.00080561 </v>
   <v>       0.00080561 </v>
   <v>       0.00080561 </v>
   <v>       0.00080561 </v>
   <v>       0.00080561 </v>
   <v>       0.00080561 </v>
   <v>       0.00080561 </v>
   <v>       0.00080561 </v>
   <v>       0.00080561 </v>
   <v>       0.00080561 </v>
   <v>       0.00080561 </v>
   <v>       0.00080561 </v>
   <v>       0.00080561 </v>
   <v>       0.00080561 </v>
   <v>       0.00080561 </v>
   <v>       0.00040281 </v>
   <v>       0.00020140 </v>
   <v>       0.00080561 </v>
   <v>       0.00080561 </v>
   <v>       0.00080561 </v>
   <v>       0.00080561 </v>
   <v>       0.00080561 </v>
   <v>       0.00080561 </v>
   <v>       0.00080561 </v>
   <v>       0.00080561 </v>
   <v>       0.00080561 </v>
   <v>       0.00080561 </v>
   <v>       0.00080561 </v>
   <v>       0.00080561 </v>
   <v>       0.00080561 </v>
   <v>       0.00080561 </v>
   <v>       0.00080561 </v>
   <v>       0.00080561 </v>
   <v>       0.00080561 </v>
   <v>       0.00080561 </v>
   <v>       0.00080561 </v>
   <v>       0.00080561 </v>
   <v>       0.00040281 </v>
   <v>       0.00020140 </v>
   <v>       0.00080561 </v>
   <v>       0.00080561 </v>
   <v>       0.00080561 </v>
   <v>       0.00080561 </v>
   <v>       0.00080561 </v>
   <v>       0.00080561 </v>
   <v>       0.00080561 </v>
   <v>       0.00080561 </v>
   <v>       0.00080561 </v>
   <v>       0.00080561 </v>
   <v>       0.00080561 </v>
   <v>       0.00080561 </v>
   <v>       0.00080561 </v>
   <v>       0.00080561 </v>
   <v>       0.00080561 </v>
   <v>       0.00080561 </v>
   <v>       0.00080561 </v>
   <v>       0.00080561 </v>
   <v>       0.00040281 </v>
   <v>       0.00020140 </v>
   <v>       0.00080561 </v>
   <v>       0.00080561 </v>
   <v>       0.00080561 </v>
   <v>       0.00080561 </v>
   <v>       0.00080561 </v>
   <v>       0.00080561 </v>
   <v>       0.00080561 </v>
   <v>       0.00080561 </v>
   <v>       0.00080561 </v>
   <v>       0.00080561 </v>
   <v>       0.00080561 </v>
   <v>       0.00080561 </v>
   <v>       0.00080561 </v>
   <v>       0.00080561 </v>
   <v>       0.00080561 </v>
   <v>       0.00080561 </v>
   <v>       0.00040281 </v>
   <v>       0.00020140 </v>
   <v>       0.00080561 </v>
   <v>       0.00080561 </v>
   <v>       0.00080561 </v>
   <v>       0.00080561 </v>
   <v>       0.00080561 </v>
   <v>       0.00080561 </v>
   <v>       0.00080561 </v>
   <v>       0.00080561 </v>
   <v>       0.00080561 </v>
   <v>       0.00080561 </v>
   <v>       0.00080561 </v>
   <v>       0.00080561 </v>
   <v>       0.00080561 </v>
   <v>       0.00080561 </v>
   <v>       0.00040281 </v>
   <v>       0.00020140 </v>
   <v>       0.00080561 </v>
   <v>       0.00080561 </v>
   <v>       0.00080561 </v>
   <v>       0.00080561 </v>
   <v>       0.00080561 </v>
   <v>       0.00080561 </v>
   <v>       0.00080561 </v>
   <v>       0.00080561 </v>
   <v>       0.00080561 </v>
   <v>       0.00080561 </v>
   <v>       0.00080561 </v>
   <v>       0.00080561 </v>
   <v>       0.00040281 </v>
   <v>       0.00020140 </v>
   <v>       0.00080561 </v>
   <v>       0.00080561 </v>
   <v>       0.00080561 </v>
   <v>       0.00080561 </v>
   <v>       0.00080561 </v>
   <v>       0.00080561 </v>
   <v>       0.00080561 </v>
   <v>       0.00080561 </v>
   <v>       0.00080561 </v>
   <v>       0.00080561 </v>
   <v>       0.00040281 </v>
   <v>       0.00020140 </v>
   <v>       0.00080561 </v>
   <v>       0.00080561 </v>
   <v>       0.00080561 </v>
   <v>       0.00080561 </v>
   <v>       0.00080561 </v>
   <v>       0.00080561 </v>
   <v>       0.00080561 </v>
   <v>       0.00080561 </v>
   <v>       0.00040281 </v>
   <v>       0.00020140 </v>
   <v>       0.00080561 </v>
   <v>       0.00080561 </v>
   <v>       0.00080561 </v>
   <v>       0.00080561 </v>
   <v>       0.00080561 </v>
   <v>       0.00080561 </v>
   <v>       0.00040281 </v>
   <v>       0.00020140 </v>
   <v>       0.00080561 </v>
   <v>       0.00080561 </v>
   <v>       0.00080561 </v>
   <v>       0.00080561 </v>
   <v>       0.00040281 </v>
   <v>       0.00020140 </v>
   <v>       0.00080561 </v>
   <v>       0.00080561 </v>
   <v>       0.00040281 </v>
   <v>       0.00020140 </v>
   <v>       0.00040281 </v>
   <v>       0.00080561 </v>
   <v>       0.00161122 </v>
   <v>       0.00161122 </v>
   <v>       0.00161122 </v>
   <v>       0.00161122 </v>
   <v>       0.00161122 </v>
   <v>       0.00161122 </v>
   <v>       0.00161122 </v>
   <v>       0.00161122 </v>
   <v>       0.00161122 </v>
   <v>       0.00161122 </v>
   <v>       0.00161122 </v>
   <v>       0.00161122 </v>
   <v>       0.00161122 </v>
   <v>       0.00080561 </v>
   <v>       0.00161122 </v>
   <v>       0.00161122 </v>
   <v>       0.00161122 </v>
   <v>       0.00161122 </v>
   <v>       0.00161122 </v>
   <v>       0.00161122 </v>
   <v>       0.00161122 </v>
   <v>       0.00161122 </v>
   <v>       0.00161122 </v>
   <v>       0.00161122 </v>
   <v>       0.00161122 </v>
   <v>       0.00161122 </v>
   <v>       0.00161122 </v>
   <v>       0.00161122 </v>
   <v>       0.00161122 </v>
   <v>       0.00161122 </v>
   <v>       0.00161122 </v>
   <v>       0.00161122 </v>
   <v>       0.00161122 </v>
   <v>       0.00161122 </v>
   <v>       0.00161122 </v>
   <v>       0.00161122 </v>
   <v>       0.00161122 </v>
   <v>       0.00161122 </v>
   <v>       0.00080561 </v>
   <v>       0.00080561 </v>
   <v>       0.00161122 </v>
   <v>       0.00161122 </v>
   <v>       0.00161122 </v>
   <v>       0.00161122 </v>
   <v>       0.00161122 </v>
   <v>       0.00161122 </v>
   <v>       0.00161122 </v>
   <v>       0.00161122 </v>
   <v>       0.00161122 </v>
   <v>       0.00161122 </v>
   <v>       0.00161122 </v>
   <v>       0.00161122 </v>
   <v>       0.00161122 </v>
   <v>       0.00161122 </v>
   <v>       0.00161122 </v>
   <v>       0.00161122 </v>
   <v>       0.00161122 </v>
   <v>       0.00161122 </v>
   <v>       0.00161122 </v>
   <v>       0.00161122 </v>
   <v>       0.00161122 </v>
   <v>       0.00161122 </v>
   <v>       0.00080561 </v>
   <v>       0.00080561 </v>
   <v>       0.00161122 </v>
   <v>       0.00161122 </v>
   <v>       0.00161122 </v>
   <v>       0.00161122 </v>
   <v>       0.00161122 </v>
   <v>       0.00161122 </v>
   <v>       0.00161122 </v>
   <v>       0.00161122 </v>
   <v>       0.00161122 </v>
   <v>       0.00161122 </v>
   <v>       0.00161122 </v>
   <v>       0.00161122 </v>
   <v>       0.00161122 </v>
   <v>       0.00161122 </v>
   <v>       0.00161122 </v>
   <v>       0.00161122 </v>
   <v>       0.00161122 </v>
   <v>       0.00161122 </v>
   <v>       0.00161122 </v>
   <v>       0.00161122 </v>
   <v>       0.00080561 </v>
   <v>       0.00080561 </v>
   <v>       0.00161122 </v>
   <v>       0.00161122 </v>
   <v>       0.00161122 </v>
   <v>       0.00161122 </v>
   <v>       0.00161122 </v>
   <v>       0.00161122 </v>
   <v>       0.00161122 </v>
   <v>       0.00161122 </v>
   <v>       0.00161122 </v>
   <v>       0.00161122 </v>
   <v>       0.00161122 </v>
   <v>       0.00161122 </v>
   <v>       0.00161122 </v>
   <v>       0.00161122 </v>
   <v>       0.00161122 </v>
   <v>       0.00161122 </v>
   <v>       0.00161122 </v>
   <v>       0.00161122 </v>
   <v>       0.00080561 </v>
   <v>       0.00080561 </v>
   <v>       0.00161122 </v>
   <v>       0.00161122 </v>
   <v>       0.00161122 </v>
   <v>       0.00161122 </v>
   <v>       0.00161122 </v>
   <v>       0.00161122 </v>
   <v>       0.00161122 </v>
   <v>       0.00161122 </v>
   <v>       0.00161122 </v>
   <v>       0.00161122 </v>
   <v>       0.00161122 </v>
   <v>       0.00161122 </v>
   <v>       0.00161122 </v>
   <v>       0.00161122 </v>
   <v>       0.00161122 </v>
   <v>       0.00161122 </v>
   <v>       0.00080561 </v>
   <v>       0.00080561 </v>
   <v>       0.00161122 </v>
   <v>       0.00161122 </v>
   <v>       0.00161122 </v>
   <v>       0.00161122 </v>
   <v>       0.00161122 </v>
   <v>       0.00161122 </v>
   <v>       0.00161122 </v>
   <v>       0.00161122 </v>
   <v>       0.00161122 </v>
   <v>       0.00161122 </v>
   <v>       0.00161122 </v>
   <v>       0.00161122 </v>
   <v>       0.00161122 </v>
   <v>       0.00161122 </v>
   <v>       0.00080561 </v>
   <v>       0.00080561 </v>
   <v>       0.00161122 </v>
   <v>       0.00161122 </v>
   <v>       0.00161122 </v>
   <v>       0.00161122 </v>
   <v>       0.00161122 </v>
   <v>       0.00161122 </v>
   <v>       0.00161122 </v>
   <v>       0.00161122 </v>
   <v>       0.00161122 </v>
   <v>       0.00161122 </v>
   <v>       0.00161122 </v>
   <v>       0.00161122 </v>
   <v>       0.00080561 </v>
   <v>       0.00080561 </v>
   <v>       0.00161122 </v>
   <v>       0.00161122 </v>
   <v>       0.00161122 </v>
   <v>       0.00161122 </v>
   <v>       0.00161122 </v>
   <v>       0.00161122 </v>
   <v>       0.00161122 </v>
   <v>       0.00161122 </v>
   <v>       0.00161122 </v>
   <v>       0.00161122 </v>
   <v>       0.00080561 </v>
   <v>       0.00080561 </v>
   <v>       0.00161122 </v>
   <v>       0.00161122 </v>
   <v>       0.00161122 </v>
   <v>       0.00161122 </v>
   <v>       0.00161122 </v>
   <v>       0.00161122 </v>
   <v>       0.00161122 </v>
   <v>       0.00161122 </v>
   <v>       0.00080561 </v>
   <v>       0.00080561 </v>
   <v>       0.00161122 </v>
   <v>       0.00161122 </v>
   <v>       0.00161122 </v>
   <v>       0.00161122 </v>
   <v>       0.00161122 </v>
   <v>       0.00161122 </v>
   <v>       0.00080561 </v>
   <v>       0.00080561 </v>
   <v>       0.00161122 </v>
   <v>       0.00161122 </v>
   <v>       0.00161122 </v>
   <v>       0.00161122 </v>
   <v>       0.00080561 </v>
   <v>       0.00080561 </v>
   <v>       0.00161122 </v>
   <v>       0.00161122 </v>
   <v>       0.00080561 </v>
   <v>       0.00080561 </v>
   <v>       0.00080561 </v>
   <v>       0.00080561 </v>
   <v>       0.00161122 </v>
   <v>       0.00161122 </v>
   <v>       0.00161122 </v>
   <v>       0.00161122 </v>
   <v>       0.00161122 </v>
   <v>       0.00161122 </v>
   <v>       0.00161122 </v>
   <v>       0.00161122 </v>
   <v>       0.00161122 </v>
   <v>       0.00161122 </v>
   <v>       0.00161122 </v>
   <v>       0.00080561 </v>
   <v>       0.00161122 </v>
   <v>       0.00161122 </v>
   <v>       0.00161122 </v>
   <v>       0.00161122 </v>
   <v>       0.00161122 </v>
   <v>       0.00161122 </v>
   <v>       0.00161122 </v>
   <v>       0.00161122 </v>
   <v>       0.00161122 </v>
   <v>       0.00161122 </v>
   <v>       0.00161122 </v>
   <v>       0.00161122 </v>
   <v>       0.00161122 </v>
   <v>       0.00161122 </v>
   <v>       0.00161122 </v>
   <v>       0.00161122 </v>
   <v>       0.00161122 </v>
   <v>       0.00161122 </v>
   <v>       0.00161122 </v>
   <v>       0.00161122 </v>
   <v>       0.00080561 </v>
   <v>       0.00080561 </v>
   <v>       0.00161122 </v>
   <v>       0.00161122 </v>
   <v>       0.00161122 </v>
   <v>       0.00161122 </v>
   <v>       0.00161122 </v>
   <v>       0.00161122 </v>
   <v>       0.00161122 </v>
   <v>       0.00161122 </v>
   <v>       0.00161122 </v>
   <v>       0.00161122 </v>
   <v>       0.00161122 </v>
   <v>       0.00161122 </v>
   <v>       0.00161122 </v>
   <v>       0.00161122 </v>
   <v>       0.00161122 </v>
   <v>       0.00161122 </v>
   <v>       0.00161122 </v>
   <v>       0.00161122 </v>
   <v>       0.00080561 </v>
   <v>       0.00080561 </v>
   <v>       0.00161122 </v>
   <v>       0.00161122 </v>
   <v>       0.00161122 </v>
   <v>       0.00161122 </v>
   <v>       0.00161122 </v>
   <v>       0.00161122 </v>
   <v>       0.00161122 </v>
   <v>       0.00161122 </v>
   <v>       0.00161122 </v>
   <v>       0.00161122 </v>
   <v>       0.00161122 </v>
   <v>       0.00161122 </v>
   <v>       0.00161122 </v>
   <v>       0.00161122 </v>
   <v>       0.00161122 </v>
   <v>       0.00161122 </v>
   <v>       0.00080561 </v>
   <v>       0.00080561 </v>
   <v>       0.00161122 </v>
   <v>       0.00161122 </v>
   <v>       0.00161122 </v>
   <v>       0.00161122 </v>
   <v>       0.00161122 </v>
   <v>       0.00161122 </v>
   <v>       0.00161122 </v>
   <v>       0.00161122 </v>
   <v>       0.00161122 </v>
   <v>       0.00161122 </v>
   <v>       0.00161122 </v>
   <v>       0.00161122 </v>
   <v>       0.00161122 </v>
   <v>       0.00161122 </v>
   <v>       0.00080561 </v>
   <v>       0.00080561 </v>
   <v>       0.00161122 </v>
   <v>       0.00161122 </v>
   <v>       0.00161122 </v>
   <v>       0.00161122 </v>
   <v>       0.00161122 </v>
   <v>       0.00161122 </v>
   <v>       0.00161122 </v>
   <v>       0.00161122 </v>
   <v>       0.00161122 </v>
   <v>       0.00161122 </v>
   <v>       0.00161122 </v>
   <v>       0.00161122 </v>
   <v>       0.00080561 </v>
   <v>       0.00080561 </v>
   <v>       0.00161122 </v>
   <v>       0.00161122 </v>
   <v>       0.00161122 </v>
   <v>       0.00161122 </v>
   <v>       0.00161122 </v>
   <v>       0.00161122 </v>
   <v>       0.00161122 </v>
   <v>       0.00161122 </v>
   <v>       0.00161122 </v>
   <v>       0.00161122 </v>
   <v>       0.00080561 </v>
   <v>       0.00080561 </v>
   <v>       0.00161122 </v>
   <v>       0.00161122 </v>
   <v>       0.00161122 </v>
   <v>       0.00161122 </v>
   <v>       0.00161122 </v>
   <v>       0.00161122 </v>
   <v>       0.00161122 </v>
   <v>       0.00161122 </v>
   <v>       0.00080561 </v>
   <v>       0.00080561 </v>
   <v>       0.00161122 </v>
   <v>       0.00161122 </v>
   <v>       0.00161122 </v>
   <v>       0.00161122 </v>
   <v>       0.00161122 </v>
   <v>       0.00161122 </v>
   <v>       0.00080561 </v>
   <v>       0.00080561 </v>
   <v>       0.00161122 </v>
   <v>       0.00161122 </v>
   <v>       0.00161122 </v>
   <v>       0.00161122 </v>
   <v>       0.00080561 </v>
   <v>       0.00080561 </v>
   <v>       0.00161122 </v>
   <v>       0.00161122 </v>
   <v>       0.00080561 </v>
   <v>       0.00080561 </v>
   <v>       0.00080561 </v>
   <v>       0.00080561 </v>
   <v>       0.00161122 </v>
   <v>       0.00161122 </v>
   <v>       0.00161122 </v>
   <v>       0.00161122 </v>
   <v>       0.00161122 </v>
   <v>       0.00161122 </v>
   <v>       0.00161122 </v>
   <v>       0.00161122 </v>
   <v>       0.00161122 </v>
   <v>       0.00080561 </v>
   <v>       0.00161122 </v>
   <v>       0.00161122 </v>
   <v>       0.00161122 </v>
   <v>       0.00161122 </v>
   <v>       0.00161122 </v>
   <v>       0.00161122 </v>
   <v>       0.00161122 </v>
   <v>       0.00161122 </v>
   <v>       0.00161122 </v>
   <v>       0.00161122 </v>
   <v>       0.00161122 </v>
   <v>       0.00161122 </v>
   <v>       0.00161122 </v>
   <v>       0.00161122 </v>
   <v>       0.00161122 </v>
   <v>       0.00161122 </v>
   <v>       0.00080561 </v>
   <v>       0.00080561 </v>
   <v>       0.00161122 </v>
   <v>       0.00161122 </v>
   <v>       0.00161122 </v>
   <v>       0.00161122 </v>
   <v>       0.00161122 </v>
   <v>       0.00161122 </v>
   <v>       0.00161122 </v>
   <v>       0.00161122 </v>
   <v>       0.00161122 </v>
   <v>       0.00161122 </v>
   <v>       0.00161122 </v>
   <v>       0.00161122 </v>
   <v>       0.00161122 </v>
   <v>       0.00161122 </v>
   <v>       0.00080561 </v>
   <v>       0.00080561 </v>
   <v>       0.00161122 </v>
   <v>       0.00161122 </v>
   <v>       0.00161122 </v>
   <v>       0.00161122 </v>
   <v>       0.00161122 </v>
   <v>       0.00161122 </v>
   <v>       0.00161122 </v>
   <v>       0.00161122 </v>
   <v>       0.00161122 </v>
   <v>       0.00161122 </v>
   <v>       0.00161122 </v>
   <v>       0.00161122 </v>
   <v>       0.00080561 </v>
   <v>       0.00080561 </v>
   <v>       0.00161122 </v>
   <v>       0.00161122 </v>
   <v>       0.00161122 </v>
   <v>       0.00161122 </v>
   <v>       0.00161122 </v>
   <v>       0.00161122 </v>
   <v>       0.00161122 </v>
   <v>       0.00161122 </v>
   <v>       0.00161122 </v>
   <v>       0.00161122 </v>
   <v>       0.00080561 </v>
   <v>       0.00080561 </v>
   <v>       0.00161122 </v>
   <v>       0.00161122 </v>
   <v>       0.00161122 </v>
   <v>       0.00161122 </v>
   <v>       0.00161122 </v>
   <v>       0.00161122 </v>
   <v>       0.00161122 </v>
   <v>       0.00161122 </v>
   <v>       0.00080561 </v>
   <v>       0.00080561 </v>
   <v>       0.00161122 </v>
   <v>       0.00161122 </v>
   <v>       0.00161122 </v>
   <v>       0.00161122 </v>
   <v>       0.00161122 </v>
   <v>       0.00161122 </v>
   <v>       0.00080561 </v>
   <v>       0.00080561 </v>
   <v>       0.00161122 </v>
   <v>       0.00161122 </v>
   <v>       0.00161122 </v>
   <v>       0.00161122 </v>
   <v>       0.00080561 </v>
   <v>       0.00080561 </v>
   <v>       0.00161122 </v>
   <v>       0.00161122 </v>
   <v>       0.00080561 </v>
   <v>       0.00080561 </v>
   <v>       0.00080561 </v>
   <v>       0.00080561 </v>
   <v>       0.00161122 </v>
   <v>       0.00161122 </v>
   <v>       0.00161122 </v>
   <v>       0.00161122 </v>
   <v>       0.00161122 </v>
   <v>       0.00161122 </v>
   <v>       0.00161122 </v>
   <v>       0.00080561 </v>
   <v>       0.00161122 </v>
   <v>       0.00161122 </v>
   <v>       0.00161122 </v>
   <v>       0.00161122 </v>
   <v>       0.00161122 </v>
   <v>       0.00161122 </v>
   <v>       0.00161122 </v>
   <v>       0.00161122 </v>
   <v>       0.00161122 </v>
   <v>       0.00161122 </v>
   <v>       0.00161122 </v>
   <v>       0.00161122 </v>
   <v>       0.00080561 </v>
   <v>       0.00080561 </v>
   <v>       0.00161122 </v>
   <v>       0.00161122 </v>
   <v>       0.00161122 </v>
   <v>       0.00161122 </v>
   <v>       0.00161122 </v>
   <v>       0.00161122 </v>
   <v>       0.00161122 </v>
   <v>       0.00161122 </v>
   <v>       0.00161122 </v>
   <v>       0.00161122 </v>
   <v>       0.00080561 </v>
   <v>       0.00080561 </v>
   <v>       0.00161122 </v>
   <v>       0.00161122 </v>
   <v>       0.00161122 </v>
   <v>       0.00161122 </v>
   <v>       0.00161122 </v>
   <v>       0.00161122 </v>
   <v>       0.00161122 </v>
   <v>       0.00161122 </v>
   <v>       0.00080561 </v>
   <v>       0.00080561 </v>
   <v>       0.00161122 </v>
   <v>       0.00161122 </v>
   <v>       0.00161122 </v>
   <v>       0.00161122 </v>
   <v>       0.00161122 </v>
   <v>       0.00161122 </v>
   <v>       0.00080561 </v>
   <v>       0.00080561 </v>
   <v>       0.00161122 </v>
   <v>       0.00161122 </v>
   <v>       0.00161122 </v>
   <v>       0.00161122 </v>
   <v>       0.00080561 </v>
   <v>       0.00080561 </v>
   <v>       0.00161122 </v>
   <v>       0.00161122 </v>
   <v>       0.00080561 </v>
   <v>       0.00080561 </v>
   <v>       0.00080561 </v>
   <v>       0.00080561 </v>
   <v>       0.00161122 </v>
   <v>       0.00161122 </v>
   <v>       0.00161122 </v>
   <v>       0.00161122 </v>
   <v>       0.00161122 </v>
   <v>       0.00080561 </v>
   <v>       0.00161122 </v>
   <v>       0.00161122 </v>
   <v>       0.00161122 </v>
   <v>       0.00161122 </v>
   <v>       0.00161122 </v>
   <v>       0.00161122 </v>
   <v>       0.00161122 </v>
   <v>       0.00161122 </v>
   <v>       0.00080561 </v>
   <v>       0.00080561 </v>
   <v>       0.00161122 </v>
   <v>       0.00161122 </v>
   <v>       0.00161122 </v>
   <v>       0.00161122 </v>
   <v>       0.00161122 </v>
   <v>       0.00161122 </v>
   <v>       0.00080561 </v>
   <v>       0.00080561 </v>
   <v>       0.00161122 </v>
   <v>       0.00161122 </v>
   <v>       0.00161122 </v>
   <v>       0.00161122 </v>
   <v>       0.00080561 </v>
   <v>       0.00080561 </v>
   <v>       0.00161122 </v>
   <v>       0.00161122 </v>
   <v>       0.00080561 </v>
   <v>       0.00080561 </v>
   <v>       0.00080561 </v>
   <v>       0.00080561 </v>
   <v>       0.00161122 </v>
   <v>       0.00161122 </v>
   <v>       0.00161122 </v>
   <v>       0.00080561 </v>
   <v>       0.00161122 </v>
   <v>       0.00161122 </v>
   <v>       0.00161122 </v>
   <v>       0.00161122 </v>
   <v>       0.00080561 </v>
   <v>       0.00080561 </v>
   <v>       0.00161122 </v>
   <v>       0.00161122 </v>
   <v>       0.00080561 </v>
   <v>       0.00080561 </v>
   <v>       0.00080561 </v>
   <v>       0.00080561 </v>
   <v>       0.00161122 </v>
   <v>       0.00080561 </v>
   <v>       0.00080561 </v>
  </varray>
  <varray name="tetrahedronlist"  type="int" >
   <v type="int" >       24        1        2        2       17 </v>
   <v type="int" >       48        2       17       18       46 </v>
   <v type="int" >       48        2        3       18       46 </v>
   <v type="int" >       24        2        2       17       46 </v>
   <v type="int" >       48        3       18       19       45 </v>
   <v type="int" >       48        3        4       19       45 </v>
   <v type="int" >       48        3       18       45       46 </v>
   <v type="int" >       48        4       19       20       44 </v>
   <v type="int" >       48        4        5       20       44 </v>
   <v type="int" >       48        4       19       44       45 </v>
   <v type="int" >       48        5       20       21       43 </v>
   <v type="int" >       48        5        6       21       43 </v>
   <v type="int" >       48        5       20       43       44 </v>
   <v type="int" >       48        6       21       22       42 </v>
   <v type="int" >       48        6        7       22       42 </v>
   <v type="int" >       48        6       21       42       43 </v>
   <v type="int" >       48        7       22       23       41 </v>
   <v type="int" >       48        7        8       23       41 </v>
   <v type="int" >       48        7       22       41       42 </v>
   <v type="int" >       48        8       23       24       40 </v>
   <v type="int" >       48        8        9       24       40 </v>
   <v type="int" >       48        8       23       40       41 </v>
   <v type="int" >       48        9       24       25       39 </v>
   <v type="int" >       48        9       10       25       39 </v>
   <v type="int" >       48        9       24       39       40 </v>
   <v type="int" >       48       10       25       26       38 </v>
   <v type="int" >       48       10       11       26       38 </v>
   <v type="int" >       48       10       25       38       39 </v>
   <v type="int" >       48       11       26       27       37 </v>
   <v type="int" >       48       11       12       27       37 </v>
   <v type="int" >       48       11       26       37       38 </v>
   <v type="int" >       48       12       27       28       36 </v>
   <v type="int" >       48       12       13       28       36 </v>
   <v type="int" >       48       12       27       36       37 </v>
   <v type="int" >       48       13       28       29       35 </v>
   <v type="int" >       48       13       14       29       35 </v>
   <v type="int" >       48       13       28       35       36 </v>
   <v type="int" >       48       14       29       30       34 </v>
   <v type="int" >       48       14       15       30       34 </v>
   <v type="int" >       48       14       29       34       35 </v>
   <v type="int" >       48       15       30       31       33 </v>
   <v type="int" >       48       15       16       31       33 </v>
   <v type="int" >       48       15       30       33       34 </v>
   <v type="int" >       48       16       31       32       32 </v>
   <v type="int" >       24       16       16       32       32 </v>
   <v type="int" >       48       16       31       32       33 </v>
   <v type="int" >       24       17       18       18       47 </v>
   <v type="int" >       24       17       18       18       46 </v>
   <v type="int" >       48       18       47       48      257 </v>
   <v type="int" >       48       18       19       48      257 </v>
[...]
        <r>  0.0708  0.0506  0.0225 </r>
       </set>
       <set comment="band 8">
        <r>  0.0209  0.0184  0.0086 </r>
        <r>  0.0209  0.0184  0.0086 </r>
       </set>
      </set>
      <set comment="kpoint 799">
       <set comment="band 1">
        <r>  0.2098  0.0086  0.0056 </r>
        <r>  0.2098  0.0086  0.0056 </r>
       </set>
       <set comment="band 2">
        <r>  0.1865  0.0187  0.0137 </r>
        <r>  0.1865  0.0187  0.0137 </r>
       </set>
       <set comment="band 3">
        <r>  0.0068  0.0654  0.0055 </r>
        <r>  0.0068  0.0654  0.0055 </r>
       </set>
       <set comment="band 4">
        <r>  0.0013  0.0432  0.1218 </r>
        <r>  0.0013  0.0432  0.1218 </r>
       </set>
       <set comment="band 5">
        <r>  0.0177  0.0118  0.0504 </r>
        <r>  0.0177  0.0118  0.0504 </r>
       </set>
       <set comment="band 6">
        <r>  0.0337  0.0352  0.0526 </r>
        <r>  0.0337  0.0352  0.0526 </r>
       </set>
       <set comment="band 7">
        <r>  0.0452  0.0530  0.0060 </r>
        <r>  0.0452  0.0530  0.0060 </r>
       </set>
       <set comment="band 8">
        <r>  0.0260  0.0202  0.0086 </r>
        <r>  0.0260  0.0202  0.0086 </r>
       </set>
      </set>
      <set comment="kpoint 800">
       <set comment="band 1">
        <r>  0.2115  0.0122  0.0057 </r>
        <r>  0.2115  0.0122  0.0057 </r>
       </set>
       <set comment="band 2">
        <r>  0.1855  0.0182  0.0138 </r>
        <r>  0.1855  0.0182  0.0138 </r>
       </set>
       <set comment="band 3">
        <r>  0.0070  0.0708  0.0006 </r>
        <r>  0.0070  0.0708  0.0006 </r>
       </set>
       <set comment="band 4">
        <r>  0.0010  0.0323  0.1264 </r>
        <r>  0.0010  0.0323  0.1264 </r>
       </set>
       <set comment="band 5">
        <r>  0.0091  0.0126  0.0450 </r>
        <r>  0.0091  0.0126  0.0450 </r>
       </set>
       <set comment="band 6">
        <r>  0.0495  0.0300  0.0581 </r>
        <r>  0.0495  0.0300  0.0581 </r>
       </set>
       <set comment="band 7">
        <r>  0.0299  0.0499  0.0033 </r>
        <r>  0.0299  0.0499  0.0033 </r>
       </set>
       <set comment="band 8">
        <r>  0.0344  0.0294  0.0104 </r>
        <r>  0.0344  0.0294  0.0104 </r>
       </set>
      </set>
      <set comment="kpoint 801">
       <set comment="band 1">
        <r>  0.2064  0.0063  0.0065 </r>
        <r>  0.2064  0.0063  0.0065 </r>
       </set>
       <set comment="band 2">
        <r>  0.1913  0.0172  0.0134 </r>
        <r>  0.1913  0.0172  0.0134 </r>
       </set>
       <set comment="band 3">
        <r>  0.0057  0.0480  0.0257 </r>
        <r>  0.0057  0.0480  0.0257 </r>
       </set>
       <set comment="band 4">
        <r>  0.0006  0.0704  0.0964 </r>
        <r>  0.0006  0.0704  0.0964 </r>
       </set>
       <set comment="band 5">
        <r>  0.0287  0.0391  0.0532 </r>
        <r>  0.0287  0.0391  0.0532 </r>
       </set>
       <set comment="band 6">
        <r>  0.0224  0.0089  0.0077 </r>
        <r>  0.0224  0.0089  0.0077 </r>
       </set>
       <set comment="band 7">
        <r>  0.0499  0.0482  0.0540 </r>
        <r>  0.0499  0.0482  0.0540 </r>
       </set>
       <set comment="band 8">
        <r>  0.0214  0.0198  0.0099 </r>
        <r>  0.0214  0.0198  0.0099 </r>
       </set>
      </set>
      <set comment="kpoint 802">
       <set comment="band 1">
        <r>  0.2075  0.0086  0.0070 </r>
        <r>  0.2075  0.0086  0.0070 </r>
       </set>
       <set comment="band 2">
        <r>  0.1933  0.0172  0.0137 </r>
        <r>  0.1933  0.0172  0.0137 </r>
       </set>
       <set comment="band 3">
        <r>  0.0042  0.0615  0.0091 </r>
        <r>  0.0042  0.0615  0.0091 </r>
       </set>
       <set comment="band 4">
        <r>  0.0005  0.0504  0.1125 </r>
        <r>  0.0005  0.0504  0.1125 </r>
       </set>
       <set comment="band 5">
        <r>  0.0264  0.0145  0.0557 </r>
        <r>  0.0264  0.0145  0.0557 </r>
       </set>
       <set comment="band 6">
        <r>  0.0122  0.0331  0.0084 </r>
        <r>  0.0122  0.0331  0.0084 </r>
       </set>
       <set comment="band 7">
        <r>  0.0582  0.0498  0.0488 </r>
        <r>  0.0582  0.0498  0.0488 </r>
       </set>
       <set comment="band 8">
        <r>  0.0260  0.0199  0.0091 </r>
        <r>  0.0260  0.0199  0.0091 </r>
       </set>
      </set>
      <set comment="kpoint 803">
       <set comment="band 1">
        <r>  0.2091  0.0120  0.0072 </r>
        <r>  0.2091  0.0120  0.0072 </r>
       </set>
       <set comment="band 2">
        <r>  0.1935  0.0170  0.0139 </r>
        <r>  0.1935  0.0170  0.0139 </r>
       </set>
       <set comment="band 3">
        <r>  0.0032  0.0721  0.0007 </r>
        <r>  0.0032  0.0721  0.0007 </r>
       </set>
       <set comment="band 4">
        <r>  0.0007  0.0332  0.1207 </r>
        <r>  0.0007  0.0332  0.1207 </r>
       </set>
       <set comment="band 5">
        <r>  0.0235  0.0075  0.0501 </r>
        <r>  0.0235  0.0075  0.0501 </r>
       </set>
       <set comment="band 6">
        <r>  0.0112  0.0316  0.0408 </r>
        <r>  0.0112  0.0316  0.0408 </r>
       </set>
       <set comment="band 7">
        <r>  0.0560  0.0568  0.0207 </r>
        <r>  0.0560  0.0568  0.0207 </r>
       </set>
       <set comment="band 8">
        <r>  0.0323  0.0233  0.0092 </r>
        <r>  0.0323  0.0233  0.0092 </r>
       </set>
      </set>
      <set comment="kpoint 804">
       <set comment="band 1">
        <r>  0.2101  0.0159  0.0072 </r>
        <r>  0.2101  0.0159  0.0072 </r>
       </set>
       <set comment="band 2">
        <r>  0.1930  0.0175  0.0139 </r>
        <r>  0.1930  0.0175  0.0139 </r>
       </set>
       <set comment="band 3">
        <r>  0.0027  0.0769  0.0020 </r>
        <r>  0.0027  0.0769  0.0020 </r>
       </set>
       <set comment="band 4">
        <r>  0.0009  0.0214  0.1195 </r>
        <r>  0.0009  0.0214  0.1195 </r>
       </set>
       <set comment="band 5">
        <r>  0.0199  0.0053  0.0471 </r>
        <r>  0.0199  0.0053  0.0471 </r>
       </set>
       <set comment="band 6">
        <r>  0.0277  0.0286  0.0575 </r>
        <r>  0.0277  0.0286  0.0575 </r>
       </set>
       <set comment="band 7">
        <r>  0.0295  0.0388  0.0014 </r>
        <r>  0.0295  0.0388  0.0014 </r>
       </set>
       <set comment="band 8">
        <r>  0.0458  0.0479  0.0145 </r>
        <r>  0.0458  0.0479  0.0145 </r>
       </set>
      </set>
      <set comment="kpoint 805">
       <set comment="band 1">
        <r>  0.2095  0.0183  0.0070 </r>
        <r>  0.2095  0.0183  0.0070 </r>
       </set>
       <set comment="band 2">
        <r>  0.1926  0.0208  0.0136 </r>
        <r>  0.1926  0.0208  0.0136 </r>
       </set>
       <set comment="band 3">
        <r>  0.0029  0.0758  0.0105 </r>
        <r>  0.0029  0.0758  0.0105 </r>
       </set>
       <set comment="band 4">
        <r>  0.0012  0.0148  0.1117 </r>
        <r>  0.0012  0.0148  0.1117 </r>
       </set>
       <set comment="band 5">
        <r>  0.0152  0.0050  0.0447 </r>
        <r>  0.0152  0.0050  0.0447 </r>
       </set>
       <set comment="band 6">
        <r>  0.0290  0.0189  0.0627 </r>
        <r>  0.0290  0.0189  0.0627 </r>
       </set>
       <set comment="band 7">
        <r>  0.0452  0.0302  0.0029 </r>
        <r>  0.0452  0.0302  0.0029 </r>
       </set>
       <set comment="band 8">
        <r>  0.0334  0.0679  0.0108 </r>
        <r>  0.0334  0.0679  0.0108 </r>
       </set>
      </set>
      <set comment="kpoint 806">
       <set comment="band 1">
        <r>  0.2087  0.0193  0.0064 </r>
        <r>  0.2087  0.0193  0.0064 </r>
       </set>
       <set comment="band 2">
        <r>  0.1906  0.0268  0.0131 </r>
        <r>  0.1906  0.0268  0.0131 </r>
       </set>
       <set comment="band 3">
        <r>  0.0041  0.0705  0.0228 </r>
        <r>  0.0041  0.0705  0.0228 </r>
       </set>
       <set comment="band 4">
        <r>  0.0015  0.0114  0.1003 </r>
        <r>  0.0015  0.0114  0.1003 </r>
       </set>
       <set comment="band 5">
        <r>  0.0081  0.0050  0.0392 </r>
        <r>  0.0081  0.0050  0.0392 </r>
       </set>
       <set comment="band 6">
        <r>  0.0230  0.0054  0.0554 </r>
        <r>  0.0230  0.0054  0.0554 </r>
       </set>
       <set comment="band 7">
        <r>  0.0655  0.0436  0.0187 </r>
        <r>  0.0655  0.0436  0.0187 </r>
       </set>
       <set comment="band 8">
        <r>  0.0260  0.0692  0.0095 </r>
        <r>  0.0260  0.0692  0.0095 </r>
       </set>
      </set>
      <set comment="kpoint 807">
       <set comment="band 1">
        <r>  0.2055  0.0084  0.0088 </r>
        <r>  0.2055  0.0084  0.0088 </r>
       </set>
       <set comment="band 2">
        <r>  0.1970  0.0155  0.0138 </r>
        <r>  0.1970  0.0155  0.0138 </r>
       </set>
       <set comment="band 3">
        <r>  0.0035  0.0455  0.0246 </r>
        <r>  0.0035  0.0455  0.0246 </r>
       </set>
       <set comment="band 4">
        <r>  0.0000  0.0712  0.0915 </r>
        <r>  0.0000  0.0712  0.0915 </r>
       </set>
       <set comment="band 5">
        <r>  0.0291  0.0366  0.0505 </r>
        <r>  0.0291  0.0366  0.0505 </r>
       </set>
       <set comment="band 6">
        <r>  0.0264  0.0109  0.0076 </r>
        <r>  0.0264  0.0109  0.0076 </r>
       </set>
       <set comment="band 7">
        <r>  0.0415  0.0473  0.0574 </r>
        <r>  0.0415  0.0473  0.0574 </r>
       </set>
       <set comment="band 8">
        <r>  0.0257  0.0199  0.0100 </r>
        <r>  0.0257  0.0199  0.0100 </r>
       </set>
      </set>
      <set comment="kpoint 808">
       <set comment="band 1">
        <r>  0.2064  0.0116  0.0092 </r>
        <r>  0.2064  0.0116  0.0092 </r>
       </set>
       <set comment="band 2">
        <r>  0.1987  0.0156  0.0139 </r>
        <r>  0.1987  0.0156  0.0139 </r>
       </set>
       <set comment="band 3">
        <r>  0.0017  0.0711  0.0018 </r>
        <r>  0.0017  0.0711  0.0018 </r>
       </set>
       <set comment="band 4">
        <r>  0.0004  0.0380  0.1142 </r>
        <r>  0.0004  0.0380  0.1142 </r>
       </set>
       <set comment="band 5">
        <r>  0.0270  0.0081  0.0517 </r>
        <r>  0.0270  0.0081  0.0517 </r>
       </set>
       <set comment="band 6">
        <r>  0.0194  0.0402  0.0059 </r>
        <r>  0.0194  0.0402  0.0059 </r>
       </set>
       <set comment="band 7">
        <r>  0.0453  0.0465  0.0571 </r>
        <r>  0.0453  0.0465  0.0571 </r>
       </set>
       <set comment="band 8">
        <r>  0.0312  0.0219  0.0092 </r>
        <r>  0.0312  0.0219  0.0092 </r>
       </set>
      </set>
      <set comment="kpoint 809">
       <set comment="band 1">
        <r>  0.2081  0.0154  0.0093 </r>
        <r>  0.2081  0.0154  0.0093 </r>
       </set>
       <set comment="band 2">
        <r>  0.1980  0.0164  0.0138 </r>
        <r>  0.1980  0.0164  0.0138 </r>
       </set>
       <set comment="band 3">
        <r>  0.0005  0.0824  0.0046 </r>
        <r>  0.0005  0.0824  0.0046 </r>
       </set>
       <set comment="band 4">
        <r>  0.0009  0.0186  0.1117 </r>
        <r>  0.0009  0.0186  0.1117 </r>
       </set>
       <set comment="band 5">
        <r>  0.0250  0.0043  0.0477 </r>
        <r>  0.0250  0.0043  0.0477 </r>
       </set>
       <set comment="band 6">
        <r>  0.0060  0.0342  0.0176 </r>
        <r>  0.0060  0.0342  0.0176 </r>
       </set>
       <set comment="band 7">
        <r>  0.0520  0.0512  0.0490 </r>
        <r>  0.0520  0.0512  0.0490 </r>
       </set>
       <set comment="band 8">
        <r>  0.0400  0.0287  0.0092 </r>
        <r>  0.0400  0.0287  0.0092 </r>
       </set>
      </set>
      <set comment="kpoint 810">
       <set comment="band 1">
        <r>  0.2091  0.0173  0.0091 </r>
        <r>  0.2091  0.0173  0.0091 </r>
       </set>
       <set comment="band 2">
        <r>  0.1962  0.0206  0.0133 </r>
        <r>  0.1962  0.0206  0.0133 </r>
       </set>
       <set comment="band 3">
        <r>  0.0008  0.0800  0.0183 </r>
        <r>  0.0008  0.0800  0.0183 </r>
       </set>
       <set comment="band 4">
        <r>  0.0012  0.0122  0.0988 </r>
        <r>  0.0012  0.0122  0.0988 </r>
       </set>
       <set comment="band 5">
        <r>  0.0221  0.0029  0.0457 </r>
        <r>  0.0221  0.0029  0.0457 </r>
       </set>
       <set comment="band 6">
        <r>  0.0061  0.0043  0.0441 </r>
        <r>  0.0061  0.0043  0.0441 </r>
       </set>
       <set comment="band 7">
        <r>  0.0471  0.0502  0.0124 </r>
        <r>  0.0471  0.0502  0.0124 </r>
       </set>
       <set comment="band 8">
        <r>  0.0476  0.0624  0.0217 </r>
        <r>  0.0476  0.0624  0.0217 </r>
       </set>
      </set>
      <set comment="kpoint 811">
       <set comment="band 1">
        <r>  0.2039  0.0111  0.0117 </r>
        <r>  0.2039  0.0111  0.0117 </r>
       </set>
       <set comment="band 2">
        <r>  0.2011  0.0139  0.0141 </r>
        <r>  0.2011  0.0139  0.0141 </r>
       </set>
       <set comment="band 3">
        <r>  0.0016  0.0425  0.0232 </r>
        <r>  0.0016  0.0425  0.0232 </r>
       </set>
       <set comment="band 4">
        <r>  0.0004  0.0720  0.0873 </r>
        <r>  0.0004  0.0720  0.0873 </r>
       </set>
       <set comment="band 5">
        <r>  0.0290  0.0341  0.0480 </r>
        <r>  0.0290  0.0341  0.0480 </r>
       </set>
       <set comment="band 6">
        <r>  0.0282  0.0126  0.0078 </r>
        <r>  0.0282  0.0126  0.0078 </r>
       </set>
       <set comment="band 7">
        <r>  0.0354  0.0469  0.0602 </r>
        <r>  0.0354  0.0469  0.0602 </r>
       </set>
       <set comment="band 8">
        <r>  0.0303  0.0209  0.0105 </r>
        <r>  0.0303  0.0209  0.0105 </r>
       </set>
      </set>
      <set comment="kpoint 812">
       <set comment="band 1">
        <r>  0.2058  0.0141  0.0125 </r>
        <r>  0.2058  0.0141  0.0125 </r>
       </set>
       <set comment="band 2">
        <r>  0.2008  0.0154  0.0134 </r>
        <r>  0.2008  0.0154  0.0134 </r>
       </set>
       <set comment="band 3">
        <r>  0.0002  0.0925  0.0133 </r>
        <r>  0.0002  0.0925  0.0133 </r>
       </set>
       <set comment="band 4">
        <r>  0.0010  0.0130  0.0976 </r>
        <r>  0.0010  0.0130  0.0976 </r>
       </set>
       <set comment="band 5">
        <r>  0.0273  0.0035  0.0465 </r>
        <r>  0.0273  0.0035  0.0465 </r>
       </set>
       <set comment="band 6">
        <r>  0.0212  0.0437  0.0081 </r>
        <r>  0.0212  0.0437  0.0081 </r>
       </set>
       <set comment="band 7">
        <r>  0.0376  0.0139  0.0595 </r>
        <r>  0.0376  0.0139  0.0595 </r>
       </set>
       <set comment="band 8">
        <r>  0.0370  0.0555  0.0118 </r>
        <r>  0.0370  0.0555  0.0118 </r>
       </set>
      </set>
      <set comment="kpoint 813">
       <set comment="band 1">
        <r>  0.2076  0.0102  0.0089 </r>
        <r>  0.2076  0.0102  0.0089 </r>
       </set>
       <set comment="band 2">
        <r>  0.1970  0.0180  0.0134 </r>
        <r>  0.1970  0.0180  0.0134 </r>
       </set>
       <set comment="band 3">
        <r>  0.0021  0.0405  0.0213 </r>
        <r>  0.0021  0.0405  0.0213 </r>
       </set>
       <set comment="band 4">
        <r>  0.0004  0.0684  0.0950 </r>
        <r>  0.0004  0.0684  0.0950 </r>
       </set>
       <set comment="band 5">
        <r>  0.0222  0.0368  0.0523 </r>
        <r>  0.0222  0.0368  0.0523 </r>
       </set>
       <set comment="band 6">
        <r>  0.0022  0.0108  0.0208 </r>
        <r>  0.0022  0.0108  0.0208 </r>
       </set>
       <set comment="band 7">
        <r>  0.0665  0.0465  0.0411 </r>
        <r>  0.0665  0.0465  0.0411 </r>
       </set>
       <set comment="band 8">
        <r>  0.0321  0.0209  0.0106 </r>
        <r>  0.0321  0.0209  0.0106 </r>
       </set>
      </set>
      <set comment="kpoint 814">
       <set comment="band 1">
        <r>  0.2079  0.0141  0.0092 </r>
        <r>  0.2079  0.0141  0.0092 </r>
       </set>
       <set comment="band 2">
        <r>  0.1986  0.0179  0.0137 </r>
        <r>  0.1986  0.0179  0.0137 </r>
       </set>
       <set comment="band 3">
        <r>  0.0010  0.0575  0.0033 </r>
        <r>  0.0010  0.0575  0.0033 </r>
       </set>
       <set comment="band 4">
        <r>  0.0003  0.0440  0.1124 </r>
        <r>  0.0003  0.0440  0.1124 </r>
       </set>
       <set comment="band 5">
        <r>  0.0051  0.0089  0.0448 </r>
        <r>  0.0051  0.0089  0.0448 </r>
       </set>
       <set comment="band 6">
        <r>  0.0215  0.0286  0.0545 </r>
        <r>  0.0215  0.0286  0.0545 </r>
       </set>
       <set comment="band 7">
        <r>  0.0532  0.0501  0.0109 </r>
        <r>  0.0532  0.0501  0.0109 </r>
       </set>
       <set comment="band 8">
        <r>  0.0433  0.0294  0.0137 </r>
        <r>  0.0433  0.0294  0.0137 </r>
       </set>
      </set>
      <set comment="kpoint 815">
       <set comment="band 1">
        <r>  0.2055  0.0133  0.0118 </r>
        <r>  0.2055  0.0133  0.0118 </r>
       </set>
       <set comment="band 2">
        <r>  0.2020  0.0161  0.0137 </r>
        <r>  0.2020  0.0161  0.0137 </r>
       </set>
       <set comment="band 3">
        <r>  0.0006  0.0369  0.0196 </r>
        <r>  0.0006  0.0369  0.0196 </r>
       </set>
       <set comment="band 4">
        <r>  0.0000  0.0693  0.0903 </r>
        <r>  0.0000  0.0693  0.0903 </r>
       </set>
       <set comment="band 5">
        <r>  0.0197  0.0328  0.0489 </r>
        <r>  0.0197  0.0328  0.0489 </r>
       </set>
       <set comment="band 6">
        <r>  0.0138  0.0110  0.0121 </r>
        <r>  0.0138  0.0110  0.0121 </r>
       </set>
       <set comment="band 7">
        <r>  0.0501  0.0477  0.0533 </r>
        <r>  0.0501  0.0477  0.0533 </r>
       </set>
       <set comment="band 8">
        <r>  0.0395  0.0238  0.0122 </r>
        <r>  0.0395  0.0238  0.0122 </r>
       </set>
      </set>
      <set comment="kpoint 816">
       <set comment="band 1">
        <r>  0.2062  0.0167  0.0121 </r>
        <r>  0.2062  0.0167  0.0121 </r>
       </set>
       <set comment="band 2">
        <r>  0.2019  0.0178  0.0134 </r>
        <r>  0.2019  0.0178  0.0134 </r>
       </set>
       <set comment="band 3">
        <r>  0.0000  0.0854  0.0163 </r>
        <r>  0.0000  0.0854  0.0163 </r>
       </set>
       <set comment="band 4">
        <r>  0.0002  0.0122  0.0937 </r>
        <r>  0.0002  0.0122  0.0937 </r>
       </set>
       <set comment="band 5">
        <r>  0.0110  0.0025  0.0449 </r>
        <r>  0.0110  0.0025  0.0449 </r>
       </set>
       <set comment="band 6">
        <r>  0.0002  0.0185  0.0248 </r>
        <r>  0.0002  0.0185  0.0248 </r>
       </set>
       <set comment="band 7">
        <r>  0.0532  0.0535  0.0173 </r>
        <r>  0.0532  0.0535  0.0173 </r>
       </set>
       <set comment="band 8">
        <r>  0.0588  0.0428  0.0393 </r>
        <r>  0.0588  0.0428  0.0393 </r>
       </set>
      </set>
     </set>
    </set>
   </array>
  </projected>
 </calculation>
 <structure name="finalpos" >
  <crystal>
   <varray name="basis" >
    <v>       3.86669993       0.00000000       0.00000000 </v>
    <v>       1.93334997       3.34866037       0.00000000 </v>
    <v>       1.93334997       1.11622012       3.15714728 </v>
   </varray>
   <i name="volume">     40.87957906 </i>
   <varray name="rec_basis" >
    <v>       0.25861846      -0.14931344      -0.10558055 </v>
    <v>       0.00000000       0.29862688      -0.10558055 </v>
    <v>       0.00000000       0.00000000       0.31674164 </v>
   </varray>
  </crystal>
  <varray name="positions" >
   <v>       0.12500000       0.12500000       0.12500000 </v>
   <v>       0.87500000       0.87500000       0.87500000 </v>
  </varray>
 </structure>
</modeling>
