   2   2   1   0
  0.2043979E+02  0.3866700E-09  0.3866700E-09  0.3866700E-09  0.5000000E-15
  1.000000000000000E-004
  CAR 
 unknown system                          
     16.65055170     -7.28465120  301      5.88469689      1.00000000
     -7.285  0.0000E+00  0.0000E+00
     -7.205  0.0000E+00  0.0000E+00
     -7.125  0.0000E+00  0.0000E+00
     -7.045  0.0000E+00  0.0000E+00
     -6.966  0.0000E+00  0.0000E+00
     -6.886  0.0000E+00  0.0000E+00
     -6.806  0.0000E+00  0.0000E+00
     -6.726  0.0000E+00  0.0000E+00
     -6.646  0.0000E+00  0.0000E+00
     -6.567  0.0000E+00  0.0000E+00
     -6.487  0.7827E-16  0.6245E-17
     -6.407  0.1138E-08  0.9080E-10
     -6.327  0.1095E-03  0.8735E-05
     -6.247  0.9593E-01  0.7662E-02
     -6.168  0.1481E+01  0.1258E+00
     -6.088  0.1626E+01  0.2555E+00
     -6.008  0.9851E+00  0.3341E+00
     -5.928  0.7779E+00  0.3962E+00
     -5.849  0.6673E+00  0.4494E+00
     -5.769  0.5947E+00  0.4969E+00
     -5.689  0.5422E+00  0.5401E+00
     -5.609  0.5025E+00  0.5802E+00
     -5.529  0.4723E+00  0.6179E+00
     -5.450  0.4496E+00  0.6538E+00
     -5.370  0.4292E+00  0.6880E+00
     -5.290  0.4025E+00  0.7201E+00
     -5.210  0.3777E+00  0.7503E+00
     -5.130  0.3810E+00  0.7806E+00
     -5.051  0.3837E+00  0.8113E+00
     -4.971  0.3391E+00  0.8383E+00
     -4.891  0.3369E+00  0.8652E+00
     -4.811  0.3746E+00  0.8951E+00
     -4.732  0.3096E+00  0.9198E+00
     -4.652  0.3214E+00  0.9454E+00
     -4.572  0.3532E+00  0.9736E+00
     -4.492  0.2735E+00  0.9954E+00
     -4.412  0.3623E+00  0.1024E+01
     -4.333  0.2993E+00  0.1048E+01
     -4.253  0.3217E+00  0.1074E+01
     -4.173  0.3538E+00  0.1102E+01
     -4.093  0.3010E+00  0.1126E+01
     -4.014  0.4312E+00  0.1161E+01
     -3.934  0.4560E+00  0.1197E+01
     -3.854  0.4616E+00  0.1234E+01
     -3.774  0.1314E+00  0.1244E+01
     -3.694  0.2034E+00  0.1260E+01
     -3.615  0.1398E+00  0.1272E+01
     -3.535  0.1828E+00  0.1286E+01
     -3.455  0.1542E+00  0.1298E+01
     -3.375  0.1733E+00  0.1312E+01
     -3.295  0.1551E+00  0.1325E+01
     -3.216  0.1819E+00  0.1339E+01
     -3.136  0.1451E+00  0.1351E+01
     -3.056  0.1909E+00  0.1366E+01
     -2.976  0.1591E+00  0.1379E+01
     -2.897  0.1601E+00  0.1391E+01
     -2.817  0.2197E+00  0.1409E+01
     -2.737  0.1323E+00  0.1420E+01
     -2.657  0.2382E+00  0.1439E+01
     -2.577  0.1950E+00  0.1454E+01
     -2.498  0.5324E+00  0.1497E+01
     -2.418  0.5856E+00  0.1543E+01
     -2.338  0.6729E+00  0.1597E+01
     -2.258  0.9335E+00  0.1671E+01
     -2.178  0.1561E+01  0.1796E+01
     -2.099  0.3579E+01  0.2082E+01
     -2.019  0.1805E+01  0.2226E+01
     -1.939  0.9256E+00  0.2299E+01
     -1.859  0.7676E+00  0.2361E+01
     -1.780  0.5971E+00  0.2408E+01
     -1.700  0.6300E+00  0.2459E+01
     -1.620  0.5019E+00  0.2499E+01
     -1.540  0.5297E+00  0.2541E+01
     -1.460  0.3281E+00  0.2567E+01
     -1.381  0.1379E+00  0.2578E+01
     -1.301  0.2495E+00  0.2598E+01
     -1.221  0.4183E+00  0.2631E+01
     -1.141  0.3930E+00  0.2663E+01
     -1.061  0.3672E+00  0.2692E+01
     -0.982  0.2516E+00  0.2712E+01
     -0.902  0.2821E+00  0.2735E+01
     -0.822  0.2732E+00  0.2756E+01
     -0.742  0.1955E+00  0.2772E+01
     -0.663  0.2935E+00  0.2795E+01
     -0.583  0.2029E+00  0.2812E+01
     -0.503  0.2033E+00  0.2828E+01
     -0.423  0.2680E+00  0.2849E+01
     -0.343  0.1779E+00  0.2863E+01
     -0.264  0.2115E+00  0.2880E+01
     -0.184  0.2422E+00  0.2900E+01
     -0.104  0.1593E+00  0.2912E+01
     -0.024  0.2208E+00  0.2930E+01
      0.055  0.2365E+00  0.2949E+01
      0.135  0.8871E-01  0.2956E+01
      0.215  0.3355E+00  0.2983E+01
      0.295  0.7679E-01  0.2989E+01
      0.375  0.2406E+00  0.3008E+01
      0.454  0.2019E+00  0.3024E+01
      0.534  0.1304E+00  0.3034E+01
      0.614  0.2389E+00  0.3053E+01
      0.694  0.1359E+00  0.3064E+01
      0.774  0.2279E+00  0.3083E+01
      0.853  0.1417E+00  0.3094E+01
      0.933  0.1911E+00  0.3109E+01
      1.013  0.1902E+00  0.3124E+01
      1.093  0.1326E+00  0.3135E+01
      1.172  0.2383E+00  0.3154E+01
      1.252  0.1466E+00  0.3166E+01
      1.332  0.6686E+00  0.3219E+01
      1.412  0.9123E+00  0.3292E+01
      1.492  0.7961E+00  0.3355E+01
      1.571  0.8066E+00  0.3420E+01
      1.651  0.6836E+00  0.3474E+01
      1.731  0.5292E+00  0.3516E+01
      1.811  0.6611E+00  0.3569E+01
      1.891  0.5491E+00  0.3613E+01
      1.970  0.4843E+00  0.3651E+01
      2.050  0.5928E+00  0.3699E+01
      2.130  0.4996E+00  0.3739E+01
      2.210  0.4664E+00  0.3776E+01
      2.289  0.5730E+00  0.3822E+01
      2.369  0.4801E+00  0.3860E+01
      2.449  0.4751E+00  0.3898E+01
      2.529  0.6097E+00  0.3946E+01
      2.609  0.4634E+00  0.3983E+01
      2.688  0.6308E+00  0.4034E+01
      2.768  0.8352E+00  0.4100E+01
      2.848  0.3086E+01  0.4347E+01
      2.928  0.3178E+01  0.4600E+01
      3.007  0.2027E+01  0.4762E+01
      3.087  0.1517E+01  0.4883E+01
      3.167  0.1424E+01  0.4996E+01
      3.247  0.1281E+01  0.5099E+01
      3.327  0.9294E+00  0.5173E+01
      3.406  0.7231E+00  0.5231E+01
      3.486  0.7407E+00  0.5290E+01
      3.566  0.7414E+00  0.5349E+01
      3.646  0.5789E+00  0.5395E+01
      3.726  0.7231E+00  0.5453E+01
      3.805  0.6559E+00  0.5505E+01
      3.885  0.5693E+00  0.5550E+01
      3.965  0.6226E+00  0.5600E+01
      4.045  0.7351E+00  0.5659E+01
      4.124  0.4431E+00  0.5694E+01
      4.204  0.6419E+00  0.5745E+01
      4.284  0.6940E+00  0.5801E+01
      4.364  0.4545E+00  0.5837E+01
      4.444  0.1541E+01  0.5960E+01
      4.523  0.2438E+01  0.6154E+01
      4.603  0.1672E+01  0.6288E+01
      4.683  0.1489E+01  0.6407E+01
      4.763  0.1313E+01  0.6511E+01
      4.843  0.1216E+01  0.6608E+01
      4.922  0.1278E+01  0.6710E+01
      5.002  0.1133E+01  0.6801E+01
      5.082  0.1241E+01  0.6900E+01
      5.162  0.1216E+01  0.6997E+01
      5.241  0.1239E+01  0.7096E+01
      5.321  0.1334E+01  0.7202E+01
      5.401  0.1460E+01  0.7318E+01
      5.481  0.1690E+01  0.7453E+01
      5.561  0.2399E+01  0.7645E+01
      5.640  0.3635E+01  0.7935E+01
      5.720  0.8136E+00  0.8000E+01
      5.800  0.5032E-02  0.8000E+01
      5.880  0.3371E-06  0.8000E+01
      5.959  0.1791E-12  0.8000E+01
      6.039  0.1471E-07  0.8000E+01
      6.119  0.4350E-03  0.8000E+01
      6.199  0.1324E+00  0.8011E+01
      6.279  0.9737E+00  0.8088E+01
      6.358  0.1494E+01  0.8207E+01
      6.438  0.2952E+01  0.8443E+01
      6.518  0.1962E+01  0.8600E+01
      6.598  0.1470E+01  0.8717E+01
      6.678  0.1254E+01  0.8817E+01
      6.757  0.1120E+01  0.8906E+01
      6.837  0.1054E+01  0.8990E+01
      6.917  0.8210E+00  0.9056E+01
      6.997  0.5918E+00  0.9103E+01
      7.076  0.8054E+00  0.9167E+01
      7.156  0.1429E+01  0.9281E+01
      7.236  0.1083E+01  0.9368E+01
      7.316  0.8941E+00  0.9439E+01
      7.396  0.8638E+00  0.9508E+01
      7.475  0.7701E+00  0.9569E+01
      7.555  0.7733E+00  0.9631E+01
      7.635  0.7160E+00  0.9688E+01
      7.715  0.7242E+00  0.9746E+01
      7.795  0.7231E+00  0.9804E+01
      7.874  0.7268E+00  0.9862E+01
      7.954  0.7269E+00  0.9920E+01
      8.034  0.7714E+00  0.9981E+01
      8.114  0.9626E+00  0.1006E+02
      8.193  0.3322E+01  0.1032E+02
      8.273  0.3667E+01  0.1062E+02
      8.353  0.2085E+01  0.1078E+02
      8.433  0.1822E+01  0.1093E+02
      8.513  0.1842E+01  0.1107E+02
      8.592  0.2007E+01  0.1123E+02
      8.672  0.1698E+01  0.1137E+02
      8.752  0.1333E+01  0.1148E+02
      8.832  0.1781E+01  0.1162E+02
      8.912  0.1495E+01  0.1174E+02
      8.991  0.2606E+01  0.1195E+02
      9.071  0.3385E+01  0.1222E+02
      9.151  0.3347E+01  0.1248E+02
      9.231  0.1679E+01  0.1262E+02
      9.310  0.5481E+00  0.1266E+02
      9.390  0.9439E+00  0.1274E+02
      9.470  0.5277E+00  0.1278E+02
      9.550  0.7553E+00  0.1284E+02
      9.630  0.7523E+00  0.1290E+02
      9.709  0.6221E+00  0.1295E+02
      9.789  0.9532E+00  0.1302E+02
      9.869  0.6056E+00  0.1307E+02
      9.949  0.8517E+00  0.1314E+02
     10.028  0.3346E+00  0.1317E+02
     10.108  0.4593E+00  0.1320E+02
     10.188  0.5306E+00  0.1325E+02
     10.268  0.3516E+00  0.1327E+02
     10.348  0.3497E+00  0.1330E+02
     10.427  0.4859E+00  0.1334E+02
     10.507  0.2984E+00  0.1336E+02
     10.587  0.6153E+00  0.1341E+02
     10.667  0.2567E+00  0.1343E+02
     10.747  0.4383E+00  0.1347E+02
     10.826  0.3848E+00  0.1350E+02
     10.906  0.4433E+00  0.1353E+02
     10.986  0.5172E+00  0.1358E+02
     11.066  0.4032E+00  0.1361E+02
     11.145  0.5170E+00  0.1365E+02
     11.225  0.9551E+00  0.1373E+02
     11.305  0.8431E+00  0.1379E+02
     11.385  0.4806E+00  0.1383E+02
     11.465  0.6196E+00  0.1388E+02
     11.544  0.3146E+00  0.1391E+02
     11.624  0.5427E+00  0.1395E+02
     11.704  0.5894E+00  0.1400E+02
     11.784  0.3592E+00  0.1402E+02
     11.864  0.4849E+00  0.1406E+02
     11.943  0.4274E+00  0.1410E+02
     12.023  0.1375E+00  0.1411E+02
     12.103  0.4450E+00  0.1414E+02
     12.183  0.3281E+00  0.1417E+02
     12.262  0.1559E+00  0.1418E+02
     12.342  0.4896E+00  0.1422E+02
     12.422  0.2159E+00  0.1424E+02
     12.502  0.3584E+00  0.1427E+02
     12.582  0.5992E+00  0.1432E+02
     12.661  0.2540E+00  0.1434E+02
     12.741  0.2223E+00  0.1435E+02
     12.821  0.3877E+00  0.1438E+02
     12.901  0.2967E+00  0.1441E+02
     12.980  0.1715E+00  0.1442E+02
     13.060  0.6235E+00  0.1447E+02
     13.140  0.3851E+00  0.1450E+02
     13.220  0.2481E+00  0.1452E+02
     13.300  0.7411E+00  0.1458E+02
     13.379  0.1203E+01  0.1468E+02
     13.459  0.1133E+01  0.1477E+02
     13.539  0.8711E+00  0.1484E+02
     13.619  0.4372E+00  0.1487E+02
     13.699  0.3492E+00  0.1490E+02
     13.778  0.5159E+00  0.1494E+02
     13.858  0.3287E+00  0.1497E+02
     13.938  0.3717E+00  0.1500E+02
     14.018  0.5523E+00  0.1504E+02
     14.097  0.3386E+00  0.1507E+02
     14.177  0.3556E+00  0.1510E+02
     14.257  0.5433E+00  0.1514E+02
     14.337  0.4019E+00  0.1517E+02
     14.417  0.3780E+00  0.1520E+02
     14.496  0.6255E+00  0.1525E+02
     14.576  0.3397E+00  0.1528E+02
     14.656  0.3767E+00  0.1531E+02
     14.736  0.6144E+00  0.1536E+02
     14.816  0.4284E+00  0.1539E+02
     14.895  0.4174E+00  0.1543E+02
     14.975  0.6323E+00  0.1548E+02
     15.055  0.5210E+00  0.1552E+02
     15.135  0.5655E+00  0.1556E+02
     15.214  0.5257E+00  0.1560E+02
     15.294  0.6326E+00  0.1565E+02
     15.374  0.8696E+00  0.1572E+02
     15.454  0.7812E+00  0.1579E+02
     15.534  0.1413E+01  0.1590E+02
     15.613  0.1188E+01  0.1599E+02
     15.693  0.7426E-01  0.1600E+02
     15.773  0.8063E-04  0.1600E+02
     15.853  0.7806E-09  0.1600E+02
     15.932  0.1739E-16  0.1600E+02
     16.012  0.0000E+00  0.1600E+02
     16.092  0.0000E+00  0.1600E+02
     16.172  0.0000E+00  0.1600E+02
     16.252  0.0000E+00  0.1600E+02
     16.331  0.0000E+00  0.1600E+02
     16.411  0.0000E+00  0.1600E+02
     16.491  0.0000E+00  0.1600E+02
     16.571  0.0000E+00  0.1600E+02
     16.651  0.0000E+00  0.1600E+02
     16.65055170     -7.28465120  301      5.88469689      1.00000000
     -7.285  0.0000E+00  0.0000E+00  0.0000E+00  0.0000E+00  0.0000E+00  0.0000E+00  0.0000E+00  0.0000E+00  0.0000E+00
     -7.205  0.0000E+00  0.0000E+00  0.0000E+00  0.0000E+00  0.0000E+00  0.0000E+00  0.0000E+00  0.0000E+00  0.0000E+00
     -7.125  0.0000E+00  0.0000E+00  0.0000E+00  0.0000E+00  0.0000E+00  0.0000E+00  0.0000E+00  0.0000E+00  0.0000E+00
     -7.045  0.0000E+00  0.0000E+00  0.0000E+00  0.0000E+00  0.0000E+00  0.0000E+00  0.0000E+00  0.0000E+00  0.0000E+00
     -6.966  0.0000E+00  0.0000E+00  0.0000E+00  0.0000E+00  0.0000E+00  0.0000E+00  0.0000E+00  0.0000E+00  0.0000E+00
     -6.886  0.0000E+00  0.0000E+00  0.0000E+00  0.0000E+00  0.0000E+00  0.0000E+00  0.0000E+00  0.0000E+00  0.0000E+00
     -6.806  0.0000E+00  0.0000E+00  0.0000E+00  0.0000E+00  0.0000E+00  0.0000E+00  0.0000E+00  0.0000E+00  0.0000E+00
     -6.726  0.0000E+00  0.0000E+00  0.0000E+00  0.0000E+00  0.0000E+00  0.0000E+00  0.0000E+00  0.0000E+00  0.0000E+00
     -6.646  0.0000E+00  0.0000E+00  0.0000E+00  0.0000E+00  0.0000E+00  0.0000E+00  0.0000E+00  0.0000E+00  0.0000E+00
     -6.567  0.0000E+00  0.0000E+00  0.0000E+00  0.0000E+00  0.0000E+00  0.0000E+00  0.0000E+00  0.0000E+00  0.0000E+00
     -6.487  0.1659E-16  0.4475E-21  0.1112E-21  0.2085E-21  0.0000E+00  0.0000E+00  0.0000E+00  0.0000E+00  0.0000E+00
     -6.407  0.2412E-09  0.1309E-13  0.3706E-14  0.8067E-14  0.0000E+00  0.0000E+00  0.0000E+00  0.0000E+00  0.0000E+00
     -6.327  0.2321E-04  0.1977E-08  0.5598E-09  0.1218E-08  0.0000E+00  0.0000E+00  0.0000E+00  0.0000E+00  0.0000E+00
     -6.247  0.2033E-01  0.3312E-05  0.9382E-06  0.2041E-05  0.0000E+00  0.0000E+00  0.0000E+00  0.0000E+00  0.0000E+00
     -6.168  0.3138E+00  0.1320E-03  0.3742E-04  0.8135E-04  0.0000E+00  0.0000E+00  0.0000E+00  0.0000E+00  0.0000E+00
     -6.088  0.3442E+00  0.5111E-03  0.1452E-03  0.3149E-03  0.0000E+00  0.0000E+00  0.0000E+00  0.0000E+00  0.0000E+00
     -6.008  0.2081E+00  0.7888E-03  0.2246E-03  0.4857E-03  0.0000E+00  0.0000E+00  0.0000E+00  0.0000E+00  0.0000E+00
     -5.928  0.1641E+00  0.9826E-03  0.2806E-03  0.6046E-03  0.0000E+00  0.0000E+00  0.0000E+00  0.0000E+00  0.0000E+00
     -5.849  0.1405E+00  0.1141E-02  0.3271E-03  0.7017E-03  0.0000E+00  0.0000E+00  0.0000E+00  0.0000E+00  0.0000E+00
     -5.769  0.1250E+00  0.1278E-02  0.3676E-03  0.7856E-03  0.0000E+00  0.0000E+00  0.0000E+00  0.0000E+00  0.0000E+00
     -5.689  0.1138E+00  0.1400E-02  0.4039E-03  0.8600E-03  0.0000E+00  0.0000E+00  0.0000E+00  0.0000E+00  0.0000E+00
     -5.609  0.1053E+00  0.1511E-02  0.4381E-03  0.9281E-03  0.0000E+00  0.0000E+00  0.0000E+00  0.0000E+00  0.0000E+00
     -5.529  0.9886E-01  0.1619E-02  0.4715E-03  0.9927E-03  0.0000E+00  0.0000E+00  0.0000E+00  0.0000E+00  0.0000E+00
     -5.450  0.9399E-01  0.1734E-02  0.5048E-03  0.1056E-02  0.0000E+00  0.0000E+00  0.0000E+00  0.0000E+00  0.0000E+00
     -5.370  0.8963E-01  0.1840E-02  0.5337E-03  0.1117E-02  0.0000E+00  0.0000E+00  0.0000E+00  0.0000E+00  0.0000E+00
     -5.290  0.8396E-01  0.1877E-02  0.5485E-03  0.1160E-02  0.0000E+00  0.0000E+00  0.0000E+00  0.0000E+00  0.0000E+00
     -5.210  0.7873E-01  0.1882E-02  0.5621E-03  0.1188E-02  0.0000E+00  0.0000E+00  0.0000E+00  0.0000E+00  0.0000E+00
     -5.130  0.7934E-01  0.2070E-02  0.6165E-03  0.1251E-02  0.0000E+00  0.0000E+00  0.0000E+00  0.0000E+00  0.0000E+00
     -5.051  0.7984E-01  0.2284E-02  0.6694E-03  0.1327E-02  0.0000E+00  0.0000E+00  0.0000E+00  0.0000E+00  0.0000E+00
     -4.971  0.7056E-01  0.2070E-02  0.6245E-03  0.1325E-02  0.0000E+00  0.0000E+00  0.0000E+00  0.0000E+00  0.0000E+00
     -4.891  0.7008E-01  0.2145E-02  0.6528E-03  0.1381E-02  0.0000E+00  0.0000E+00  0.0000E+00  0.0000E+00  0.0000E+00
     -4.811  0.7787E-01  0.2655E-02  0.7918E-03  0.1519E-02  0.0000E+00  0.0000E+00  0.0000E+00  0.0000E+00  0.0000E+00
     -4.732  0.6444E-01  0.2174E-02  0.6748E-03  0.1448E-02  0.0000E+00  0.0000E+00  0.0000E+00  0.0000E+00  0.0000E+00
     -4.652  0.6690E-01  0.2389E-02  0.7287E-03  0.1497E-02  0.0000E+00  0.0000E+00  0.0000E+00  0.0000E+00  0.0000E+00
     -4.572  0.7345E-01  0.2895E-02  0.8828E-03  0.1612E-02  0.0000E+00  0.0000E+00  0.0000E+00  0.0000E+00  0.0000E+00
     -4.492  0.5711E-01  0.2045E-02  0.6518E-03  0.1515E-02  0.0000E+00  0.0000E+00  0.0000E+00  0.0000E+00  0.0000E+00
     -4.412  0.7552E-01  0.3136E-02  0.9714E-03  0.1782E-02  0.0000E+00  0.0000E+00  0.0000E+00  0.0000E+00  0.0000E+00
     -4.333  0.6270E-01  0.2460E-02  0.7828E-03  0.1721E-02  0.0000E+00  0.0000E+00  0.0000E+00  0.0000E+00  0.0000E+00
     -4.253  0.6748E-01  0.2739E-02  0.8906E-03  0.1803E-02  0.0000E+00  0.0000E+00  0.0000E+00  0.0000E+00  0.0000E+00
     -4.173  0.7437E-01  0.3204E-02  0.1011E-02  0.2008E-02  0.0000E+00  0.0000E+00  0.0000E+00  0.0000E+00  0.0000E+00
     -4.093  0.6395E-01  0.2348E-02  0.8095E-03  0.1949E-02  0.0000E+00  0.0000E+00  0.0000E+00  0.0000E+00  0.0000E+00
     -4.014  0.9156E-01  0.3849E-02  0.1266E-02  0.2577E-02  0.0000E+00  0.0000E+00  0.0000E+00  0.0000E+00  0.0000E+00
     -3.934  0.9945E-01  0.2693E-02  0.9967E-03  0.3445E-02  0.0000E+00  0.0000E+00  0.0000E+00  0.0000E+00  0.0000E+00
     -3.854  0.9904E-01  0.4061E-02  0.1418E-02  0.2785E-02  0.0000E+00  0.0000E+00  0.0000E+00  0.0000E+00  0.0000E+00
     -3.774  0.2728E-01  0.1855E-02  0.5006E-03  0.5739E-03  0.0000E+00  0.0000E+00  0.0000E+00  0.0000E+00  0.0000E+00
     -3.694  0.4162E-01  0.3259E-02  0.1139E-02  0.5742E-03  0.0000E+00  0.0000E+00  0.0000E+00  0.0000E+00  0.0000E+00
     -3.615  0.2899E-01  0.2126E-02  0.5333E-03  0.6831E-03  0.0000E+00  0.0000E+00  0.0000E+00  0.0000E+00  0.0000E+00
     -3.535  0.3726E-01  0.3115E-02  0.1194E-02  0.4831E-03  0.0000E+00  0.0000E+00  0.0000E+00  0.0000E+00  0.0000E+00
     -3.455  0.3210E-01  0.2375E-02  0.6074E-03  0.8535E-03  0.0000E+00  0.0000E+00  0.0000E+00  0.0000E+00  0.0000E+00
     -3.375  0.3530E-01  0.3097E-02  0.1243E-02  0.4911E-03  0.0000E+00  0.0000E+00  0.0000E+00  0.0000E+00  0.0000E+00
     -3.295  0.3231E-01  0.2446E-02  0.7052E-03  0.8979E-03  0.0000E+00  0.0000E+00  0.0000E+00  0.0000E+00  0.0000E+00
     -3.216  0.3724E-01  0.3259E-02  0.1287E-02  0.7073E-03  0.0000E+00  0.0000E+00  0.0000E+00  0.0000E+00  0.0000E+00
     -3.136  0.3005E-01  0.2421E-02  0.8531E-03  0.7818E-03  0.0000E+00  0.0000E+00  0.0000E+00  0.0000E+00  0.0000E+00
     -3.056  0.3948E-01  0.3289E-02  0.1266E-02  0.1048E-02  0.0000E+00  0.0000E+00  0.0000E+00  0.0000E+00  0.0000E+00
     -2.976  0.3273E-01  0.2834E-02  0.1185E-02  0.7935E-03  0.0000E+00  0.0000E+00  0.0000E+00  0.0000E+00  0.0000E+00
     -2.897  0.3338E-01  0.2623E-02  0.1046E-02  0.1118E-02  0.0000E+00  0.0000E+00  0.0000E+00  0.0000E+00  0.0000E+00
     -2.817  0.4520E-01  0.3939E-02  0.1794E-02  0.1247E-02  0.0000E+00  0.0000E+00  0.0000E+00  0.0000E+00  0.0000E+00
     -2.737  0.2782E-01  0.1949E-02  0.8940E-03  0.1205E-02  0.0000E+00  0.0000E+00  0.0000E+00  0.0000E+00  0.0000E+00
     -2.657  0.4882E-01  0.4369E-02  0.2185E-02  0.1452E-02  0.0000E+00  0.0000E+00  0.0000E+00  0.0000E+00  0.0000E+00
     -2.577  0.4108E-01  0.2688E-02  0.1486E-02  0.2039E-02  0.0000E+00  0.0000E+00  0.0000E+00  0.0000E+00  0.0000E+00
     -2.498  0.1113E+00  0.8739E-02  0.4617E-02  0.4437E-02  0.0000E+00  0.0000E+00  0.0000E+00  0.0000E+00  0.0000E+00
     -2.418  0.1227E+00  0.1041E-01  0.5239E-02  0.4157E-02  0.0000E+00  0.0000E+00  0.0000E+00  0.0000E+00  0.0000E+00
     -2.338  0.1399E+00  0.1338E-01  0.6689E-02  0.3743E-02  0.0000E+00  0.0000E+00  0.0000E+00  0.0000E+00  0.0000E+00
     -2.258  0.1909E+00  0.2112E-01  0.1056E-01  0.3412E-02  0.0000E+00  0.0000E+00  0.0000E+00  0.0000E+00  0.0000E+00
     -2.178  0.3117E+00  0.4030E-01  0.2015E-01  0.2797E-02  0.0000E+00  0.0000E+00  0.0000E+00  0.0000E+00  0.0000E+00
     -2.099  0.6964E+00  0.1023E+00  0.5114E-01  0.1593E-02  0.0000E+00  0.0000E+00  0.0000E+00  0.0000E+00  0.0000E+00
     -2.019  0.3480E+00  0.5260E-01  0.2630E-01  0.1574E-02  0.0000E+00  0.0000E+00  0.0000E+00  0.0000E+00  0.0000E+00
     -1.939  0.1768E+00  0.2701E-01  0.1351E-01  0.2321E-02  0.0000E+00  0.0000E+00  0.0000E+00  0.0000E+00  0.0000E+00
     -1.859  0.1458E+00  0.2237E-01  0.1119E-01  0.2896E-02  0.0000E+00  0.0000E+00  0.0000E+00  0.0000E+00  0.0000E+00
     -1.780  0.1125E+00  0.1725E-01  0.8624E-02  0.3371E-02  0.0000E+00  0.0000E+00  0.0000E+00  0.0000E+00  0.0000E+00
     -1.700  0.1183E+00  0.1847E-01  0.9234E-02  0.3785E-02  0.0000E+00  0.0000E+00  0.0000E+00  0.0000E+00  0.0000E+00
     -1.620  0.9334E-01  0.1440E-01  0.7218E-02  0.4217E-02  0.0000E+00  0.0000E+00  0.0000E+00  0.0000E+00  0.0000E+00
     -1.540  0.9799E-01  0.1425E-01  0.7677E-02  0.5992E-02  0.0000E+00  0.0000E+00  0.0000E+00  0.0000E+00  0.0000E+00
     -1.460  0.6082E-01  0.8184E-02  0.4901E-02  0.4289E-02  0.0000E+00  0.0000E+00  0.0000E+00  0.0000E+00  0.0000E+00
     -1.381  0.2516E-01  0.2578E-02  0.1981E-02  0.3052E-02  0.0000E+00  0.0000E+00  0.0000E+00  0.0000E+00  0.0000E+00
     -1.301  0.4452E-01  0.6392E-02  0.3816E-02  0.4177E-02  0.0000E+00  0.0000E+00  0.0000E+00  0.0000E+00  0.0000E+00
     -1.221  0.5519E-01  0.9043E-02  0.5041E-02  0.1866E-01  0.0000E+00  0.0000E+00  0.0000E+00  0.0000E+00  0.0000E+00
     -1.141  0.5038E-01  0.8612E-02  0.4672E-02  0.1833E-01  0.0000E+00  0.0000E+00  0.0000E+00  0.0000E+00  0.0000E+00
     -1.061  0.5473E-01  0.9416E-02  0.5038E-02  0.1202E-01  0.0000E+00  0.0000E+00  0.0000E+00  0.0000E+00  0.0000E+00
     -0.982  0.3554E-01  0.5612E-02  0.3094E-02  0.1047E-01  0.0000E+00  0.0000E+00  0.0000E+00  0.0000E+00  0.0000E+00
     -0.902  0.4157E-01  0.7469E-02  0.3880E-02  0.9624E-02  0.0000E+00  0.0000E+00  0.0000E+00  0.0000E+00  0.0000E+00
     -0.822  0.4173E-01  0.7344E-02  0.3816E-02  0.8665E-02  0.0000E+00  0.0000E+00  0.0000E+00  0.0000E+00  0.0000E+00
     -0.742  0.2820E-01  0.4821E-02  0.2459E-02  0.7793E-02  0.0000E+00  0.0000E+00  0.0000E+00  0.0000E+00  0.0000E+00
     -0.663  0.4455E-01  0.8661E-02  0.4346E-02  0.8826E-02  0.0000E+00  0.0000E+00  0.0000E+00  0.0000E+00  0.0000E+00
     -0.583  0.3145E-01  0.5714E-02  0.2785E-02  0.6473E-02  0.0000E+00  0.0000E+00  0.0000E+00  0.0000E+00  0.0000E+00
     -0.503  0.2758E-01  0.5383E-02  0.2628E-02  0.8762E-02  0.0000E+00  0.0000E+00  0.0000E+00  0.0000E+00  0.0000E+00
     -0.423  0.4414E-01  0.9008E-02  0.4302E-02  0.5746E-02  0.0000E+00  0.0000E+00  0.0000E+00  0.0000E+00  0.0000E+00
     -0.343  0.2292E-01  0.4541E-02  0.2143E-02  0.8729E-02  0.0000E+00  0.0000E+00  0.0000E+00  0.0000E+00  0.0000E+00
     -0.264  0.3391E-01  0.7168E-02  0.3259E-02  0.5334E-02  0.0000E+00  0.0000E+00  0.0000E+00  0.0000E+00  0.0000E+00
     -0.184  0.3504E-01  0.7679E-02  0.3663E-02  0.8351E-02  0.0000E+00  0.0000E+00  0.0000E+00  0.0000E+00  0.0000E+00
     -0.104  0.2364E-01  0.5018E-02  0.2051E-02  0.5805E-02  0.0000E+00  0.0000E+00  0.0000E+00  0.0000E+00  0.0000E+00
     -0.024  0.3280E-01  0.7627E-02  0.3620E-02  0.6711E-02  0.0000E+00  0.0000E+00  0.0000E+00  0.0000E+00  0.0000E+00
      0.055  0.3522E-01  0.8116E-02  0.3441E-02  0.7763E-02  0.0000E+00  0.0000E+00  0.0000E+00  0.0000E+00  0.0000E+00
      0.135  0.1203E-01  0.2792E-02  0.1212E-02  0.3823E-02  0.0000E+00  0.0000E+00  0.0000E+00  0.0000E+00  0.0000E+00
      0.215  0.4970E-01  0.1220E-01  0.5327E-02  0.1048E-01  0.0000E+00  0.0000E+00  0.0000E+00  0.0000E+00  0.0000E+00
      0.295  0.1176E-01  0.2952E-02  0.1261E-02  0.2074E-02  0.0000E+00  0.0000E+00  0.0000E+00  0.0000E+00  0.0000E+00
      0.375  0.3234E-01  0.8095E-02  0.3232E-02  0.1050E-01  0.0000E+00  0.0000E+00  0.0000E+00  0.0000E+00  0.0000E+00
      0.454  0.3184E-01  0.8503E-02  0.3842E-02  0.4084E-02  0.0000E+00  0.0000E+00  0.0000E+00  0.0000E+00  0.0000E+00
      0.534  0.1752E-01  0.4672E-02  0.1732E-02  0.5633E-02  0.0000E+00  0.0000E+00  0.0000E+00  0.0000E+00  0.0000E+00
      0.614  0.3269E-01  0.8779E-02  0.3541E-02  0.9543E-02  0.0000E+00  0.0000E+00  0.0000E+00  0.0000E+00  0.0000E+00
      0.694  0.2224E-01  0.6457E-02  0.2965E-02  0.1621E-02  0.0000E+00  0.0000E+00  0.0000E+00  0.0000E+00  0.0000E+00
      0.774  0.2912E-01  0.8201E-02  0.2826E-02  0.1105E-01  0.0000E+00  0.0000E+00  0.0000E+00  0.0000E+00  0.0000E+00
      0.853  0.2085E-01  0.6039E-02  0.2775E-02  0.3837E-02  0.0000E+00  0.0000E+00  0.0000E+00  0.0000E+00  0.0000E+00
      0.933  0.2840E-01  0.8899E-02  0.3413E-02  0.4881E-02  0.0000E+00  0.0000E+00  0.0000E+00  0.0000E+00  0.0000E+00
      1.013  0.2282E-01  0.6516E-02  0.2380E-02  0.1043E-01  0.0000E+00  0.0000E+00  0.0000E+00  0.0000E+00  0.0000E+00
      1.093  0.2096E-01  0.6766E-02  0.3067E-02  0.1751E-02  0.0000E+00  0.0000E+00  0.0000E+00  0.0000E+00  0.0000E+00
      1.172  0.3236E-01  0.1069E-01  0.3706E-02  0.8752E-02  0.0000E+00  0.0000E+00  0.0000E+00  0.0000E+00  0.0000E+00
      1.252  0.1342E-01  0.6167E-02  0.2148E-02  0.8522E-02  0.0000E+00  0.0000E+00  0.0000E+00  0.0000E+00  0.0000E+00
      1.332  0.2926E-01  0.4920E-01  0.1304E-01  0.2802E-01  0.0000E+00  0.0000E+00  0.0000E+00  0.0000E+00  0.0000E+00
      1.412  0.2979E-01  0.5936E-01  0.1559E-01  0.5282E-01  0.0000E+00  0.0000E+00  0.0000E+00  0.0000E+00  0.0000E+00
      1.492  0.1124E-01  0.3738E-01  0.1283E-01  0.6812E-01  0.0000E+00  0.0000E+00  0.0000E+00  0.0000E+00  0.0000E+00
      1.571  0.3544E-01  0.3479E-01  0.1363E-01  0.6281E-01  0.0000E+00  0.0000E+00  0.0000E+00  0.0000E+00  0.0000E+00
      1.651  0.2270E-01  0.2486E-01  0.1010E-01  0.6287E-01  0.0000E+00  0.0000E+00  0.0000E+00  0.0000E+00  0.0000E+00
      1.731  0.1208E-01  0.1905E-01  0.7984E-02  0.5172E-01  0.0000E+00  0.0000E+00  0.0000E+00  0.0000E+00  0.0000E+00
      1.811  0.3698E-01  0.2752E-01  0.1059E-01  0.5206E-01  0.0000E+00  0.0000E+00  0.0000E+00  0.0000E+00  0.0000E+00
      1.891  0.1784E-01  0.1776E-01  0.7526E-02  0.5538E-01  0.0000E+00  0.0000E+00  0.0000E+00  0.0000E+00  0.0000E+00
      1.970  0.1538E-01  0.1749E-01  0.7224E-02  0.4748E-01  0.0000E+00  0.0000E+00  0.0000E+00  0.0000E+00  0.0000E+00
      2.050  0.3487E-01  0.2359E-01  0.8902E-02  0.4980E-01  0.0000E+00  0.0000E+00  0.0000E+00  0.0000E+00  0.0000E+00
      2.130  0.1499E-01  0.1490E-01  0.6530E-02  0.5448E-01  0.0000E+00  0.0000E+00  0.0000E+00  0.0000E+00  0.0000E+00
      2.210  0.1878E-01  0.1644E-01  0.6678E-02  0.4687E-01  0.0000E+00  0.0000E+00  0.0000E+00  0.0000E+00  0.0000E+00
      2.289  0.3136E-01  0.2184E-01  0.8114E-02  0.5287E-01  0.0000E+00  0.0000E+00  0.0000E+00  0.0000E+00  0.0000E+00
      2.369  0.1322E-01  0.1283E-01  0.5812E-02  0.5722E-01  0.0000E+00  0.0000E+00  0.0000E+00  0.0000E+00  0.0000E+00
      2.449  0.2141E-01  0.1583E-01  0.6304E-02  0.5072E-01  0.0000E+00  0.0000E+00  0.0000E+00  0.0000E+00  0.0000E+00
      2.529  0.2778E-01  0.2201E-01  0.8180E-02  0.6329E-01  0.0000E+00  0.0000E+00  0.0000E+00  0.0000E+00  0.0000E+00
      2.609  0.1163E-01  0.8207E-02  0.3826E-02  0.6528E-01  0.0000E+00  0.0000E+00  0.0000E+00  0.0000E+00  0.0000E+00
      2.688  0.2369E-01  0.2031E-01  0.8403E-02  0.7377E-01  0.0000E+00  0.0000E+00  0.0000E+00  0.0000E+00  0.0000E+00
      2.768  0.2307E-01  0.2107E-01  0.1594E-01  0.1077E+00  0.0000E+00  0.0000E+00  0.0000E+00  0.0000E+00  0.0000E+00
      2.848  0.1229E-01  0.1245E+00  0.2306E+00  0.2344E+00  0.0000E+00  0.0000E+00  0.0000E+00  0.0000E+00  0.0000E+00
      2.928  0.2217E-01  0.1626E+00  0.3013E+00  0.1419E+00  0.0000E+00  0.0000E+00  0.0000E+00  0.0000E+00  0.0000E+00
      3.007  0.2084E-01  0.1095E+00  0.1868E+00  0.8384E-01  0.0000E+00  0.0000E+00  0.0000E+00  0.0000E+00  0.0000E+00
      3.087  0.1246E-01  0.7886E-01  0.1456E+00  0.6342E-01  0.0000E+00  0.0000E+00  0.0000E+00  0.0000E+00  0.0000E+00
      3.167  0.2093E-01  0.7996E-01  0.1307E+00  0.5379E-01  0.0000E+00  0.0000E+00  0.0000E+00  0.0000E+00  0.0000E+00
      3.247  0.1814E-01  0.6637E-01  0.1151E+00  0.5751E-01  0.0000E+00  0.0000E+00  0.0000E+00  0.0000E+00  0.0000E+00
      3.327  0.1541E-01  0.3724E-01  0.7306E-01  0.6055E-01  0.0000E+00  0.0000E+00  0.0000E+00  0.0000E+00  0.0000E+00
      3.406  0.1667E-01  0.2907E-01  0.5318E-01  0.4863E-01  0.0000E+00  0.0000E+00  0.0000E+00  0.0000E+00  0.0000E+00
      3.486  0.1690E-01  0.3023E-01  0.4825E-01  0.5518E-01  0.0000E+00  0.0000E+00  0.0000E+00  0.0000E+00  0.0000E+00
      3.566  0.1873E-01  0.2927E-01  0.4960E-01  0.5378E-01  0.0000E+00  0.0000E+00  0.0000E+00  0.0000E+00  0.0000E+00
      3.646  0.1140E-01  0.2235E-01  0.4460E-01  0.4007E-01  0.0000E+00  0.0000E+00  0.0000E+00  0.0000E+00  0.0000E+00
      3.726  0.1631E-01  0.3216E-01  0.4484E-01  0.5369E-01  0.0000E+00  0.0000E+00  0.0000E+00  0.0000E+00  0.0000E+00
      3.805  0.2126E-01  0.2734E-01  0.4415E-01  0.4503E-01  0.0000E+00  0.0000E+00  0.0000E+00  0.0000E+00  0.0000E+00
      3.885  0.7064E-02  0.2285E-01  0.4275E-01  0.4160E-01  0.0000E+00  0.0000E+00  0.0000E+00  0.0000E+00  0.0000E+00
      3.965  0.1535E-01  0.2734E-01  0.4020E-01  0.4624E-01  0.0000E+00  0.0000E+00  0.0000E+00  0.0000E+00  0.0000E+00
      4.045  0.2273E-01  0.3484E-01  0.4637E-01  0.5013E-01  0.0000E+00  0.0000E+00  0.0000E+00  0.0000E+00  0.0000E+00
      4.124  0.2994E-02  0.1545E-01  0.3658E-01  0.3422E-01  0.0000E+00  0.0000E+00  0.0000E+00  0.0000E+00  0.0000E+00
      4.204  0.1712E-01  0.3099E-01  0.4044E-01  0.4588E-01  0.0000E+00  0.0000E+00  0.0000E+00  0.0000E+00  0.0000E+00
      4.284  0.1938E-01  0.3393E-01  0.4433E-01  0.4827E-01  0.0000E+00  0.0000E+00  0.0000E+00  0.0000E+00  0.0000E+00
      4.364  0.1822E-02  0.1593E-01  0.3890E-01  0.3564E-01  0.0000E+00  0.0000E+00  0.0000E+00  0.0000E+00  0.0000E+00
      4.444  0.1973E-01  0.1066E+00  0.1241E+00  0.7868E-01  0.0000E+00  0.0000E+00  0.0000E+00  0.0000E+00  0.0000E+00
      4.523  0.1266E-01  0.1833E+00  0.2172E+00  0.1086E+00  0.0000E+00  0.0000E+00  0.0000E+00  0.0000E+00  0.0000E+00
      4.603  0.4755E-02  0.1159E+00  0.1499E+00  0.8239E-01  0.0000E+00  0.0000E+00  0.0000E+00  0.0000E+00  0.0000E+00
      4.683  0.1768E-01  0.1034E+00  0.1220E+00  0.7541E-01  0.0000E+00  0.0000E+00  0.0000E+00  0.0000E+00  0.0000E+00
      4.763  0.8028E-02  0.8840E-01  0.1090E+00  0.7113E-01  0.0000E+00  0.0000E+00  0.0000E+00  0.0000E+00  0.0000E+00
      4.843  0.9737E-02  0.7932E-01  0.1059E+00  0.6292E-01  0.0000E+00  0.0000E+00  0.0000E+00  0.0000E+00  0.0000E+00
      4.922  0.1071E-01  0.8191E-01  0.1014E+00  0.7604E-01  0.0000E+00  0.0000E+00  0.0000E+00  0.0000E+00  0.0000E+00
      5.002  0.8839E-02  0.7700E-01  0.9618E-01  0.5840E-01  0.0000E+00  0.0000E+00  0.0000E+00  0.0000E+00  0.0000E+00
      5.082  0.8229E-02  0.7458E-01  0.1034E+00  0.7611E-01  0.0000E+00  0.0000E+00  0.0000E+00  0.0000E+00  0.0000E+00
      5.162  0.8322E-02  0.8091E-01  0.9965E-01  0.6926E-01  0.0000E+00  0.0000E+00  0.0000E+00  0.0000E+00  0.0000E+00