    2    2    1    1
  0.2043979E+02  0.3866700E-09  0.3866700E-09  0.3866700E-09  0.5000000E-15
  1.000000000000000E-004
  CAR 
 unknown system                          
    8  160    8
 
  0.5000000E+00  0.5000000E+00  0.5000000E+00  0.6250000E-02
   1       -3.917376
   2       -1.250190
   3        4.440965
   4        4.440965
   5        7.087246
   6        8.968833
   7        8.968833
   8       13.322282
 
  0.4871795E+00  0.4871795E+00  0.4871795E+00  0.6250000E-02
   1       -3.926501
   2       -1.237072
   3        4.442132
   4        4.442132
   5        7.088607
   6        8.970134
   7        8.970134
   8       13.324286
 
  0.4743590E+00  0.4743590E+00  0.4743590E+00  0.6250000E-02
   1       -3.953317
   2       -1.198256
   3        4.445635
   4        4.445635
   5        7.092687
   6        8.974011
   7        8.974011
   8       13.330249
 
  0.4615385E+00  0.4615385E+00  0.4615385E+00  0.6250000E-02
   1       -3.996303
   2       -1.135260
   3        4.451473
   4        4.451473
   5        7.099513
   6        8.980452
   7        8.980452
   8       13.340030
 
  0.4487179E+00  0.4487179E+00  0.4487179E+00  0.6250000E-02
   1       -4.053292
   2       -1.050276
   3        4.459643
   4        4.459643
   5        7.109009
   6        8.989197
   7        8.989197
   8       13.353287
 
  0.4358974E+00  0.4358974E+00  0.4358974E+00  0.6250000E-02
   1       -4.121822
   2       -0.945777
   3        4.470142
   4        4.470142
   5        7.121210
   6        9.000131
   7        9.000131
   8       13.369681
 
  0.4230769E+00  0.4230769E+00  0.4230769E+00  0.6250000E-02
   1       -4.199452
   2       -0.824230
   3        4.482954
   4        4.482954
   5        7.136095
   6        9.013001
   7        9.013001
   8       13.388530
 
  0.4102564E+00  0.4102564E+00  0.4102564E+00  0.6250000E-02
   1       -4.283935
   2       -0.687901
   3        4.498102
   4        4.498102
   5        7.153666
   6        9.027642
   7        9.027642
   8       13.408895
 
  0.3974359E+00  0.3974359E+00  0.3974359E+00  0.6250000E-02
   1       -4.373341
   2       -0.538774
   3        4.515547
   4        4.515547
   5        7.173852
   6        9.043412
   7        9.043412
   8       13.429302
 
  0.3846154E+00  0.3846154E+00  0.3846154E+00  0.6250000E-02
   1       -4.466044
   2       -0.378521
   3        4.535312
   4        4.535312
   5        7.196605
   6        9.060120
   7        9.060120
   8       13.447600
 
  0.3717949E+00  0.3717949E+00  0.3717949E+00  0.6250000E-02
   1       -4.560691
   2       -0.208525
   3        4.557348
   4        4.557348
   5        7.221986
   6        9.077033
   7        9.077033
   8       13.460521
 
  0.3589744E+00  0.3589744E+00  0.3589744E+00  0.6250000E-02
   1       -4.656185
   2       -0.029933
   3        4.581650
   4        4.581650
   5        7.249908
   6        9.093647
   7        9.093647
   8       13.462803
 
  0.3461538E+00  0.3461538E+00  0.3461538E+00  0.6250000E-02
   1       -4.751639
   2        0.156306
   3        4.608196
   4        4.608196
   5        7.280321
   6        9.109274
   7        9.109274
   8       13.447488
 
  0.3333333E+00  0.3333333E+00  0.3333333E+00  0.6250000E-02
   1       -4.846335
   2        0.349399
   3        4.636953
   4        4.636953
   5        7.313167
   6        9.123146
   7        9.123146
   8       13.408375
 
  0.3205128E+00  0.3205128E+00  0.3205128E+00  0.6250000E-02
   1       -4.939689
   2        0.548683
   3        4.667889
   4        4.667889
   5        7.348378
   6        9.134420
   7        9.134420
   8       13.338698
 
  0.3076923E+00  0.3076923E+00  0.3076923E+00  0.6250000E-02
   1       -5.031223
   2        0.753586
   3        4.700959
   4        4.700959
   5        7.385875
   6        9.142199
   7        9.142199
   8       13.242646
 
  0.2948718E+00  0.2948718E+00  0.2948718E+00  0.6250000E-02
   1       -5.120556
   2        0.963600
   3        4.736100
   4        4.736100
   5        7.425543
   6        9.145546
   7        9.145546
   8       13.064199
 
  0.2820513E+00  0.2820513E+00  0.2820513E+00  0.6250000E-02
   1       -5.207365
   2        1.178292
   3        4.773265
   4        4.773265
   5        7.467309
   6        9.143558
   7        9.143558
   8       12.881630
 
  0.2692308E+00  0.2692308E+00  0.2692308E+00  0.6250000E-02
   1       -5.291374
   2        1.397283
   3        4.812368
   4        4.812368
   5        7.511035
   6        9.135381
   7        9.135381
   8       12.686411
 
  0.2564103E+00  0.2564103E+00  0.2564103E+00  0.6250000E-02
   1       -5.372357
   2        1.620143
   3        4.853320
   4        4.853320
   5        7.556557
   6        9.120303
   7        9.120303
   8       12.480056
 
  0.2435897E+00  0.2435897E+00  0.2435897E+00  0.6250000E-02
   1       -5.450132
   2        1.846522
   3        4.895993
   4        4.895993
   5        7.603693
   6        9.097775
   7        9.097775
   8       12.266360
 
  0.2307692E+00  0.2307692E+00  0.2307692E+00  0.6250000E-02
   1       -5.524536
   2        2.076052
   3        4.940267
   4        4.940267
   5        7.652245
   6        9.067596
   7        9.067596
   8       12.043907
 
  0.2179487E+00  0.2179487E+00  0.2179487E+00  0.6250000E-02
   1       -5.595435
   2        2.308348
   3        4.985973
   4        4.985973
   5        7.701970
   6        9.029674
   7        9.029674
   8       11.819274
 
  0.2051282E+00  0.2051282E+00  0.2051282E+00  0.6250000E-02
   1       -5.662716
   2        2.543002
   3        5.032925
   4        5.032925
   5        7.752588
   6        8.984406
   7        8.984406
   8       11.591778
 
  0.1923077E+00  0.1923077E+00  0.1923077E+00  0.6250000E-02
   1       -5.726287
   2        2.779553
   3        5.080917
   4        5.080917
   5        7.803741
   6        8.932501
   7        8.932501
   8       11.362266
 
  0.1794872E+00  0.1794872E+00  0.1794872E+00  0.6250000E-02
   1       -5.786066
   2        3.017518
   3        5.129661
   4        5.129661
   5        7.855106
   6        8.874702
   7        8.874702
   8       11.131489
 
  0.1666667E+00  0.1666667E+00  0.1666667E+00  0.6250000E-02
   1       -5.841972
   2        3.256305
   3        5.178858
   4        5.178858
   5        7.906191
   6        8.812108
   7        8.812108
   8       10.900124
 
  0.1538462E+00  0.1538462E+00  0.1538462E+00  0.6250000E-02
   1       -5.893936
   2        3.495256
   3        5.228173
   4        5.228173
   5        7.956602
   6        8.746138
   7        8.746138
   8       10.668957
 
  0.1410256E+00  0.1410256E+00  0.1410256E+00  0.6250000E-02
   1       -5.941910
   2        3.733522
   3        5.277172
   4        5.277172
   5        8.005483
   6        8.678052
   7        8.678052
   8       10.438792
 
  0.1282051E+00  0.1282051E+00  0.1282051E+00  0.6250000E-02
   1       -5.985844
   2        3.970086
   3        5.325385
   4        5.325385
   5        8.052259
   6        8.609253
   7        8.609253
   8       10.210888
 
  0.1153846E+00  0.1153846E+00  0.1153846E+00  0.6250000E-02
   1       -6.025699
   2        4.203722
   3        5.372270
   4        5.372270
   5        8.096013
   6        8.541148
   7        8.541148
   8        9.986727
 
  0.1025641E+00  0.1025641E+00  0.1025641E+00  0.6250000E-02
   1       -6.061441
   2        4.432597
   3        5.417209
   4        5.417209
   5        8.135685
   6        8.475162
   7        8.475162
   8        9.768389
 
  0.8974359E-01  0.8974359E-01  0.8974359E-01  0.6250000E-02
   1       -6.093053
   2        4.654569
   3        5.459522
   4        5.459522
   5        8.169924
   6        8.412680
   7        8.412680
   8        9.558712
 
  0.7692308E-01  0.7692308E-01  0.7692308E-01  0.6250000E-02
   1       -6.120500
   2        4.866710
   3        5.498472
   4        5.498472
   5        8.197036
   6        8.355062
   7        8.355062
   8        9.361631
 
  0.6410256E-01  0.6410256E-01  0.6410256E-01  0.6250000E-02
   1       -6.143756
   2        5.065070
   3        5.533279
   4        5.533279
   5        8.214933
   6        8.303608
   7        8.303608
   8        9.182492
 
  0.5128205E-01  0.5128205E-01  0.5128205E-01  0.6250000E-02
   1       -6.162799
   2        5.244406
   3        5.563186
   4        5.563186
   5        8.221432
   6        8.259543
   7        8.259543
   8        9.028104
 
  0.3846154E-01  0.3846154E-01  0.3846154E-01  0.6250000E-02
   1       -6.177627
   2        5.397826
   3        5.587374
   4        5.587374
   5        8.215515
   6        8.223970
   7        8.223970
   8        8.905727
 
  0.2564103E-01  0.2564103E-01  0.2564103E-01  0.6250000E-02
   1       -6.188223
   2        5.517084
   3        5.605200
   4        5.605200
   5        8.197828
   6        8.197828
   7        8.200046
   8        8.820276
 
  0.1282051E-01  0.1282051E-01  0.1282051E-01  0.6250000E-02
   1       -6.194573
   2        5.593465
   3        5.616159
   4        5.616159
   5        8.181841
   6        8.181841
   7        8.183544
   8        8.771597
 
  0.0000000E+00  0.0000000E+00  0.0000000E+00  0.6250000E-02
   1       -6.196687
   2        5.619841
   3        5.619841
   4        5.619841
   5        8.176459
   6        8.176459
   7        8.176459
   8        8.756060
 
  0.0000000E+00  0.0000000E+00  0.0000000E+00  0.6250000E-02
   1       -6.196687
   2        5.619841
   3        5.619841
   4        5.619841
   5        8.176459
   6        8.176459
   7        8.176459
   8        8.756060
 
  0.0000000E+00  0.1282051E-01  0.1282051E-01  0.6250000E-02
   1       -6.193867
   2        5.599177
   3        5.607650
   4        5.607650
   5        8.169395
   6        8.192135
   7        8.192135
   8        8.776343
 
  0.0000000E+00  0.2564103E-01  0.2564103E-01  0.6250000E-02
   1       -6.185393
   2        5.538813
   3        5.571955
   4        5.571955
   5        8.148433
   6        8.238256
   7        8.238256
   8        8.835381
 
  0.0000000E+00  0.3846154E-01  0.3846154E-01  0.6250000E-02
   1       -6.171263
   2        5.443060
   3        5.515249
   4        5.515249
   5        8.114234
   6        8.312352
   7        8.312352
   8        8.928263
 
  0.0000000E+00  0.5128205E-01  0.5128205E-01  0.6250000E-02
   1       -6.151477
   2        5.317623
   3        5.440936
   4        5.440936
   5        8.067834
   6        8.411027
   7        8.411027
   8        9.048177
 
  0.0000000E+00  0.6410256E-01  0.6410256E-01  0.6250000E-02
   1       -6.126047
   2        5.168345
   3        5.352617
   4        5.352617
   5        8.010528
   6        8.530617
   7        8.530617
   8        9.187494
 
  0.0000000E+00  0.7692308E-01  0.7692308E-01  0.6250000E-02
   1       -6.094983
   2        5.000446
   3        5.253702
   4        5.253702
   5        7.943780
   6        8.667675
   7        8.667675
   8        9.338235
 
  0.0000000E+00  0.8974359E-01  0.8974359E-01  0.6250000E-02
   1       -6.058301
   2        4.818211
   3        5.147143
   4        5.147143
   5        7.869120
   6        8.819203
   7        8.819204
   8        9.491888
 
  0.0000000E+00  0.1025641E+00  0.1025641E+00  0.6250000E-02
   1       -6.016025
   2        4.625001
   3        5.035376
   4        5.035377
   5        7.788065
   6        8.982712
   7        8.982712
   8        9.638685
 
  0.0000000E+00  0.1153846E+00  0.1153846E+00  0.6250000E-02
   1       -5.968154
   2        4.423411
   3        4.920366
   4        4.920366
   5        7.702086
   6        9.156187
   7        9.156187
   8        9.766761
 
  0.0000000E+00  0.1282051E+00  0.1282051E+00  0.6250000E-02
   1       -5.914709
   2        4.215379
   3        4.803619
   4        4.803619
   5        7.612502
   6        9.337975
   7        9.337975
   8        9.861792
 
  0.0000000E+00  0.1410256E+00  0.1410256E+00  0.6250000E-02
   1       -5.855707
   2        4.002417
   3        4.686462
   4        4.686462
   5        7.520593
   6        9.526847
   7        9.526847
   8        9.909074
 
  0.0000000E+00  0.1538462E+00  0.1538462E+00  0.6250000E-02
   1       -5.791173
   2        3.785635
   3        4.569829
   4        4.569829
   5        7.427442
   6        9.721790
   7        9.721790
   8        9.898806
 
  0.0000000E+00  0.1666667E+00  0.1666667E+00  0.6250000E-02
   1       -5.721129
   2        3.565914
   3        4.454523
   4        4.454523
   5        7.334024
   6        9.832007
   7        9.921898
   8        9.921898
 
  0.0000000E+00  0.1794872E+00  0.1794872E+00  0.6250000E-02
   1       -5.645619
   2        3.343923
   3        4.341113
   4        4.341113
   5        7.241204
   6        9.718622
   7       10.126421
   8       10.126426
 
  0.0000000E+00  0.1923077E+00  0.1923077E+00  0.6250000E-02
   1       -5.564672
   2        3.120176
   3        4.230097
   4        4.230097
   5        7.149670
   6        9.572080
   7       10.334823
   8       10.334824
 
  0.0000000E+00  0.2051282E+00  0.2051282E+00  0.6250000E-02
   1       -5.478308
   2        2.895116
   3        4.121973
   4        4.121973
   5        7.060229
   6        9.404340
   7       10.546707
   8       10.546707
 
  0.0000000E+00  0.2179487E+00  0.2179487E+00  0.6250000E-02
   1       -5.386560
   2        2.669083
   3        4.017068
   4        4.017068
   5        6.973429
   6        9.224235
   7       10.761879
   8       10.761879
 
  0.0000000E+00  0.2307692E+00  0.2307692E+00  0.6250000E-02
   1       -5.289474
   2        2.442343
   3        3.915629
   4        3.915629
   5        6.889741
   6        9.037928
   7       10.979572
   8       10.979572
 
  0.0000000E+00  0.2435897E+00  0.2435897E+00  0.6250000E-02
   1       -5.187091
   2        2.215154
   3        3.817908
   4        3.817908
   5        6.809617
   6        8.849653
   7       11.199702
   8       11.199702
 
  0.0000000E+00  0.2564103E+00  0.2564103E+00  0.6250000E-02
   1       -5.079455
   2        1.987743
   3        3.724115
   4        3.724115
   5        6.733473
   6        8.662336
   7       11.422062
   8       11.422063
 
  0.0000000E+00  0.2692308E+00  0.2692308E+00  0.6250000E-02
   1       -4.966632
   2        1.760312
   3        3.634423
   4        3.634424
   5        6.661665
   6        8.478029
   7       11.646455
   8       11.646460
 
  0.0000000E+00  0.2820513E+00  0.2820513E+00  0.6250000E-02
   1       -4.848662
   2        1.533051
   3        3.548980
   4        3.548980
   5        6.594512
   6        8.298200
   7       11.872725
   8       11.872730
 
  0.0000000E+00  0.2948718E+00  0.2948718E+00  0.6250000E-02
   1       -4.725597
   2        1.306146
   3        3.467914
   4        3.467914
   5        6.532300
   6        8.123917
   7       12.100743
   8       12.100743
 
  0.0000000E+00  0.3076923E+00  0.3076923E+00  0.6250000E-02
   1       -4.597496
   2        1.079767
   3        3.391347
   4        3.391347
   5        6.475263
   6        7.955934
   7       12.330347
   8       12.330348
 
  0.0000000E+00  0.3205128E+00  0.3205128E+00  0.6250000E-02
   1       -4.464424
   2        0.854102
   3        3.319353
   4        3.319353
   5        6.423683
   6        7.794888
   7       12.561524
   8       12.561636
 
  0.0000000E+00  0.3333333E+00  0.3333333E+00  0.6250000E-02
   1       -4.326454
   2        0.629325
   3        3.252006
   4        3.252006
   5        6.377548
   6        7.640848
   7       12.794039
   8       12.794040
 
  0.0000000E+00  0.3461538E+00  0.3461538E+00  0.6250000E-02
   1       -4.183652
   2        0.405639
   3        3.189421
   4        3.189421
   5        6.337459
   6        7.494888
   7       13.028019
   8       13.028024
 
  0.0000000E+00  0.3589744E+00  0.3589744E+00  0.6250000E-02
   1       -4.036117
   2        0.183217
   3        3.131640
   4        3.131641
   5        6.303405
   6        7.356676
   7       13.263195
   8       13.263195
 
  0.0000000E+00  0.3717949E+00  0.3717949E+00  0.6250000E-02
   1       -3.883912
   2       -0.037751
   3        3.078721
   4        3.078721
   5        6.275630
   6        7.226497
   7       13.499489
   8       13.499489
 
  0.0000000E+00  0.3846154E+00  0.3846154E+00  0.6250000E-02
   1       -3.727133
   2       -0.257091
   3        3.030696
   4        3.030696
   5        6.254145
   6        7.104339
   7       13.736613
   8       13.736614
 
  0.0000000E+00  0.3974359E+00  0.3974359E+00  0.6250000E-02
   1       -3.565861
   2       -0.474601
   3        2.987636
   4        2.987636
   5        6.239183
   6        6.990432
   7       13.974336
   8       13.974339
 
  0.0000000E+00  0.4102564E+00  0.4102564E+00  0.6250000E-02
   1       -3.400200
   2       -0.690114
   3        2.949563
   4        2.949563
   5        6.230889
   6        6.884714
   7       14.212173
   8       14.212194
 
  0.0000000E+00  0.4230769E+00  0.4230769E+00  0.6250000E-02
   1       -3.230255
   2       -0.903433
   3        2.916510
   4        2.916510
   5        6.229408
   6        6.787191
   7       14.449387
   8       14.449415
 
  0.0000000E+00  0.4358974E+00  0.4358974E+00  0.6250000E-02
   1       -3.056142
   2       -1.114374
   3        2.888498
   4        2.888498
   5        6.234866
   6        6.697796
   7       14.684574
   8       14.684583
 
  0.0000000E+00  0.4487179E+00  0.4487179E+00  0.6250000E-02
   1       -2.877984
   2       -1.322757
   3        2.865551
   4        2.865551
   5        6.247416
   6        6.616513
   7       14.915534
   8       14.915543
 
  0.0000000E+00  0.4615385E+00  0.4615385E+00  0.6250000E-02
   1       -2.695892
   2       -1.528410
   3        2.847686
   4        2.847686
   5        6.267166
   6        6.543239
   7       15.136978
   8       15.137036
 
  0.0000000E+00  0.4743590E+00  0.4743590E+00  0.6250000E-02
   1       -2.509995
   2       -1.731162
   3        2.834917
   4        2.834917
   5        6.294218
   6        6.477914
   7       15.338430
   8       15.338804
 
  0.0000000E+00  0.4871795E+00  0.4871795E+00  0.6250000E-02
   1       -2.320427
   2       -1.930855
   3        2.827252
   4        2.827252
   5        6.328708
   6        6.420449
   7       15.495085
   8       15.498070
 
  0.0000000E+00  0.5000000E+00  0.5000000E+00  0.6250000E-02
   1       -2.127331
   2       -2.127331
   3        2.824696
   4        2.824696
   5        6.370748
   6        6.370748
   7       15.559193
   8       15.562588
 
  0.0000000E+00  0.5000000E+00  0.5000000E+00  0.6250000E-02
   1       -2.127331
   2       -2.127331
   3        2.824696
   4        2.824696
   5        6.370748
   6        6.370748
   7       15.558570
   8       15.560928
 
  0.6410256E-02  0.5032051E+00  0.5032051E+00  0.6250000E-02
   1       -2.127486
   2       -2.126947
   3        2.822282
   4        2.824980
   5        6.371075
   6        6.374346
   7       15.554833
   8       15.557471
 
  0.1282051E-01  0.5064103E+00  0.5064103E+00  0.6250000E-02
   1       -2.127950
   2       -2.125795
   3        2.815072
   4        2.825829
   5        6.372053
   6        6.385106
   7       15.543247
   8       15.553166
 
  0.1923077E-01  0.5096154E+00  0.5096154E+00  0.6250000E-02
   1       -2.128728
   2       -2.123875
   3        2.803166
   4        2.827245
   5        6.373683
   6        6.402932
   7       15.524098
   8       15.539121
 
  0.2564103E-01  0.5128205E+00  0.5128205E+00  0.6250000E-02
   1       -2.129825
   2       -2.121186
   3        2.786726
   4        2.829226
   5        6.375965
   6        6.427667
   7       15.498215
   8       15.524941
 
  0.3205128E-01  0.5160256E+00  0.5160256E+00  0.6250000E-02
   1       -2.131249
   2       -2.117730
   3        2.765963
   4        2.831774
   5        6.378898
   6        6.459103
   7       15.464904
   8       15.505395
 
  0.3846154E-01  0.5192308E+00  0.5192308E+00  0.6250000E-02
   1       -2.133010
   2       -2.113506
   3        2.741140
   4        2.834886
   5        6.382482
   6        6.496991
   7       15.431871
   8       15.486177
 
  0.4487179E-01  0.5224359E+00  0.5224359E+00  0.6250000E-02
   1       -2.135119
   2       -2.108514
   3        2.712552
   4        2.838563
   5        6.386716
   6        6.541046
   7       15.382459
   8       15.457234
 
  0.5128205E-01  0.5256410E+00  0.5256410E+00  0.6250000E-02
   1       -2.137589
   2       -2.102754
   3        2.680516
   4        2.842804
   5        6.391599
   6        6.590964
   7       15.332445
   8       15.426725
 
  0.5769231E-01  0.5288462E+00  0.5288462E+00  0.6250000E-02
   1       -2.140438
   2       -2.096227
   3        2.645366
   4        2.847607
   5        6.397130
   6        6.646426
   7       15.278043
   8       15.395205
 
  0.6410256E-01  0.5320513E+00  0.5320513E+00  0.6250000E-02
   1       -2.143683
   2       -2.088946
   3        2.607432
   4        2.852973
   5        6.403296
   6        6.707201
   7       15.219890
   8       15.357917
 
  0.7051282E-01  0.5352564E+00  0.5352564E+00  0.6250000E-02
   1       -2.147345
   2       -2.080884
   3        2.567072
   4        2.858898
   5        6.410120
   6        6.772780
   7       15.161113
   8       15.328483
 
  0.7692308E-01  0.5384615E+00  0.5384615E+00  0.6250000E-02
   1       -2.151446
   2       -2.072056
   3        2.524609
   4        2.865384
   5        6.417589
   6        6.842947
   7       15.094049
   8       15.291089
 
  0.8333333E-01  0.5416667E+00  0.5416667E+00  0.6250000E-02
   1       -2.156010
   2       -2.062460
   3        2.480366
   4        2.872426
   5        6.425701
   6        6.917401
   7       15.028209
   8       15.265370
 
  0.8974359E-01  0.5448718E+00  0.5448718E+00  0.6250000E-02
   1       -2.161063
   2       -2.052097
   3        2.434652
   4        2.880026
   5        6.434454
   6        6.995856
   7       14.957943
   8       15.187874
 
  0.9615385E-01  0.5480769E+00  0.5480769E+00  0.6250000E-02
   1       -2.166633
   2       -2.040969
   3        2.387758
   4        2.888180
   5        6.443830
   6        7.078045
   7       14.892556
   8       15.258412
 
  0.1025641E+00  0.5512821E+00  0.5512821E+00  0.6250000E-02
   1       -2.172750
   2       -2.029074
   3        2.339962
   4        2.896886
   5        6.453860
   6        7.163715
   7       14.817527
   8       15.092602
 
  0.1089744E+00  0.5544872E+00  0.5544872E+00  0.6250000E-02
   1       -2.179445
   2       -2.016413
   3        2.291523
   4        2.906144
   5        6.464526
   6        7.252634
   7       14.739815
   8       15.046490
 
  0.1153846E+00  0.5576923E+00  0.5576923E+00  0.6250000E-02
   1       -2.186751
   2       -2.002986
   3        2.242685
   4        2.915950
   5        6.475826
   6        7.344590
   7       14.665207
   8       14.981788
 
  0.1217949E+00  0.5608974E+00  0.5608974E+00  0.6250000E-02
   1       -2.194702
   2       -1.988795
   3        2.193677
   4        2.926303
   5        6.487757
   6        7.439384
   7       14.588139
   8       14.927332
 
  0.1282051E+00  0.5641026E+00  0.5641026E+00  0.6250000E-02
   1       -2.203332
   2       -1.973829
   3        2.144709
   4        2.937201
   5        6.500334
   6        7.536883
   7       14.510132
   8       15.031774
 
  0.1346154E+00  0.5673077E+00  0.5673077E+00  0.6250000E-02
   1       -2.212677
   2       -1.958107
   3        2.095981
   4        2.948640
   5        6.513519
   6        7.636823
   7       14.431868
   8       14.875346
 
  0.1410256E+00  0.5705128E+00  0.5705128E+00  0.6250000E-02
   1       -2.222774
   2       -1.941621
   3        2.047676
   4        2.960617
   5        6.527327
   6        7.739100
   7       14.353969
   8       14.770523
 
  0.1474359E+00  0.5737179E+00  0.5737179E+00  0.6250000E-02
   1       -2.233662
   2       -1.924372
   3        1.999966
   4        2.973131
   5        6.541754
   6        7.843573
   7       14.276206
   8       14.761553
 
  0.1538462E+00  0.5769231E+00  0.5769231E+00  0.6250000E-02
   1       -2.245378
   2       -1.906359
   3        1.953007
   4        2.986178
   5        6.556798
   6        7.950115
   7       14.194807
   8       14.641310
 
  0.1602564E+00  0.5801282E+00  0.5801282E+00  0.6250000E-02
   1       -2.257958
   2       -1.887585
   3        1.906952
   4        2.999756
   5        6.572438
   6        8.058605
   7       14.115348
   8       14.680205
 
  0.1666667E+00  0.5833333E+00  0.5833333E+00  0.6250000E-02
   1       -2.271438
   2       -1.868046
   3        1.861938
   4        3.013860
   5        6.588704
   6        8.168936
   7       14.036134
   8       14.525735
 
  0.1730769E+00  0.5865385E+00  0.5865385E+00  0.6250000E-02
   1       -2.285855
   2       -1.847745
   3        1.818093
   4        3.028487
   5        6.605575
   6        8.281007
   7       13.955971
   8       14.464659
 
  0.1794872E+00  0.5897436E+00  0.5897436E+00  0.6250000E-02
   1       -2.301242
   2       -1.826683
   3        1.775535
   4        3.043634
   5        6.623048
   6        8.394723
   7       13.896882
   8       14.424653
 
  0.1858974E+00  0.5929487E+00  0.5929487E+00  0.6250000E-02
   1       -2.317633
   2       -1.804859
   3        1.734375
   4        3.059297
   5        6.641118
   6        8.509998
   7       13.794907
   8       14.334111
 
  0.1923077E+00  0.5961538E+00  0.5961538E+00  0.6250000E-02
   1       -2.335059
   2       -1.782275
   3        1.694714
   4        3.075471
   5        6.659781
   6        8.626751
   7       13.714678
   8       14.288214
 
  0.1987179E+00  0.5993590E+00  0.5993590E+00  0.6250000E-02
   1       -2.353559
   2       -1.758932
   3        1.656642
   4        3.092152
   5        6.678967
   6        8.744897
   7       13.635162
   8       14.210579
 
  0.2051282E+00  0.6025641E+00  0.6025641E+00  0.6250000E-02
   1       -2.373133
   2       -1.734830
   3        1.620246
   4        3.109338
   5        6.698820
   6        8.864383
   7       13.555125
   8       14.126344
 
  0.2115385E+00  0.6057692E+00  0.6057692E+00  0.6250000E-02
   1       -2.393824
   2       -1.709968
   3        1.585601
   4        3.127021
   5        6.719229
   6        8.985124
   7       13.474515
   8       14.039883
 
  0.2179487E+00  0.6089744E+00  0.6089744E+00  0.6250000E-02
   1       -2.415647
   2       -1.684349
   3        1.552774
   4        3.145198
   5        6.740210
   6        9.107051
   7       13.395426
   8       13.957910
 
  0.2243590E+00  0.6121795E+00  0.6121795E+00  0.6250000E-02
   1       -2.438615
   2       -1.657972
   3        1.521829
   4        3.163865
   5        6.761757
   6        9.230109
   7       13.316137
   8       13.874512
 
  0.2307692E+00  0.6153846E+00  0.6153846E+00  0.6250000E-02
   1       -2.462743
   2       -1.630826
   3        1.492817
   4        3.183015
   5        6.783872
   6        9.354228
   7       13.236885
   8       13.803421
 
  0.2371795E+00  0.6185897E+00  0.6185897E+00  0.6250000E-02
   1       -2.488036
   2       -1.602935
   3        1.465783
   4        3.202645
   5        6.806531
   6        9.479345
   7       13.163933
   8       13.706188
 
  0.2435897E+00  0.6217949E+00  0.6217949E+00  0.6250000E-02
   1       -2.514498
   2       -1.574289
   3        1.440766
   4        3.222747
   5        6.829737
   6        9.605395
   7       13.079947
   8       13.620689
 
  0.2500000E+00  0.6250000E+00  0.6250000E+00  0.6250000E-02
   1       -2.542127
   2       -1.544888
   3        1.417796
   4        3.243317
   5        6.853482
   6        9.732308
   7       13.002148
   8       13.538237
 
  0.3750000E+00  0.7500000E+00  0.3750000E+00  0.6250000E-02
   1       -2.542127
   2       -1.544888
   3        1.417796
   4        3.243317
   5        6.853482
   6        9.732308
   7       13.001976
   8       13.543655
 
  0.3653846E+00  0.7307692E+00  0.3653846E+00  0.6250000E-02
   1       -2.631939
   2       -1.452155
   3        1.361368
   4        3.307770
   5        6.927880
   6       10.117671
   7       12.770411
   8       13.299202
 
  0.3557692E+00  0.7115385E+00  0.3557692E+00  0.6250000E-02
   1       -2.731792
   2       -1.352661
   3        1.323811
   4        3.376197
   5        7.006824
   6       10.507416
   7       12.542717
   8       13.066357
 
  0.3461538E+00  0.6923077E+00  0.3461538E+00  0.6250000E-02
   1       -2.840947
   2       -1.246423
   3        1.304939
   4        3.448402
   5        7.090059
   6       10.897438
   7       12.319432
   8       12.847141
 
  0.3365385E+00  0.6730769E+00  0.3365385E+00  0.6250000E-02
   1       -2.958414
   2       -1.133467
   3        1.304181
   4        3.524180
   5        7.177437
   6       11.277607
   7       12.100473
   8       12.650565
 
  0.3269231E+00  0.6538462E+00  0.3269231E+00  0.6250000E-02
   1       -3.083025
   2       -1.013828
   3        1.320697
   4        3.603261
   5        7.268257
   6       11.614612
   7       11.886477
   8       12.506907
 
  0.3173077E+00  0.6346154E+00  0.3173077E+00  0.6250000E-02
   1       -3.213514
   2       -0.887520
   3        1.353477
   4        3.685394
   5        7.362311
   6       11.677415
   7       11.795861
   8       12.527968
 
  0.3076923E+00  0.6153846E+00  0.3076923E+00  0.6250000E-02
   1       -3.348598
   2       -0.754584
   3        1.401432
   4        3.770280
   5        7.459090
   6       11.473703
   7       11.744004
   8       12.472959
 
  0.2980769E+00  0.5961538E+00  0.2980769E+00  0.6250000E-02
   1       -3.487040
   2       -0.615053
   3        1.463460
   4        3.857611
   5        7.558034
   6       11.275399
   7       11.592818
   8       12.317630
 