       N       E                     dE             d eps       ncg     rms          rms(c)
DAV:   1     0.687168414108E+01    0.68717E+01   -0.27186E+03  2568   0.625E+02
DAV:   2    -0.681849393796E+01   -0.13690E+02   -0.13023E+02  4056   0.680E+01
DAV:   3    -0.700598069501E+01   -0.18749E+00   -0.18749E+00  3328   0.976E+00
DAV:   4    -0.700685105448E+01   -0.87036E-03   -0.87036E-03  4312   0.645E-01
DAV:   5    -0.700685221367E+01   -0.11592E-05   -0.11592E-05  3520   0.162E-02
DAV:   6    -0.700685222974E+01   -0.16073E-07   -0.16073E-07  4248   0.117E-03
   1 F= -.70068522E+01 E0= -.70068522E+01  d E =-.129869E-14
