 vasp.5.3.2 13Sep12 (build Nov 06 2012 17:49:15) complex                        
  
 executed on             LinuxIFC date 2014.04.10  10:48:40
 running on    4 total cores
 distrk:  each k-point on    4 cores,    1 groups
 distr:  one band on NCORES_PER_BAND=   1 cores,    4 groups


--------------------------------------------------------------------------------------------------------


 INCAR:
 POTCAR:   PAW_PBE Si 05Jan2001                   
 POTCAR:   PAW_PBE Si 05Jan2001                   
   VRHFIN =Si: s2p2                                                             
   LEXCH  = PE                                                                  
   EATOM  =   103.0669 eV,    7.5752 Ry                                         
                                                                                
   TITEL  = PAW_PBE Si 05Jan2001                                                
   LULTRA =        F    use ultrasoft PP ?                                      
   IUNSCR =        1    unscreen: 0-lin 1-nonlin 2-no                           
   RPACOR =    1.500    partial core radius                                     
   POMASS =   28.085; ZVAL   =    4.000    mass and valenz                      
   RCORE  =    1.900    outmost cutoff radius                                   
   RWIGS  =    2.480; RWIGS  =    1.312    wigner-seitz radius (au A)           
   ENMAX  =  245.345; ENMIN  =  184.009 eV                                      
   ICORE  =        2    local potential                                         
   LCOR   =        T    correct aug charges                                     
   LPAW   =        T    paw PP                                                  
   EAUG   =  322.069                                                            
   DEXC   =    -.007                                                            
   RMAX   =    2.944    core radius for proj-oper                               
   RAUG   =    1.300    factor for augmentation sphere                          
   RDEP   =    1.993    radius for radial grids                                 
   QCUT   =   -4.246; QGAM   =    8.493    optimization parameters              
                                                                                
   Description                                                                  
     l     E      TYP  RCUT    TYP  RCUT                                        
     0   .000     23  1.900                                                     
     0   .000     23  1.900                                                     
     1   .000     23  1.900                                                     
     1   .000     23  1.900                                                     
     2   .000      7  1.900                                                     
  local pseudopotential read in
  partial core-charges read in
  atomic valenz-charges read in
  non local Contribution for L=           0  read in
    real space projection operators read in
  non local Contribution for L=           0  read in
    real space projection operators read in
  non local Contribution for L=           1  read in
    real space projection operators read in
  non local Contribution for L=           1  read in
    real space projection operators read in
    PAW grid and wavefunctions read in
 
   number of l-projection  operators is LMAX  =           4
   number of lm-projection operators is LMMAX =           8
 
 PAW_PBE Si 05Jan2001                   :
 energy of atom  1       EATOM= -103.0669
 kinetic energy error for atom=    0.0012 (will be added to EATOM!!)
 
 
 POSCAR: Si diamant                              
  positions in direct lattice
  No initial velocities read in
 exchange correlation table for  LEXCH =        8
   RHO(1)=    0.500       N(1)  =     2000
   RHO(2)=  100.500       N(2)  =     4000
 


--------------------------------------------------------------------------------------------------------


 ion  position               nearest neighbor table
   1  0.125  0.125  0.125-   2 2.37   2 2.37   2 2.37   2 2.37
   2  0.875  0.875  0.875-   1 2.37   1 2.37   1 2.37   1 2.37
 
  LATTYP: Found a face centered cubic cell.
 ALAT       =     5.4683394883
  
  Lattice vectors:
  
 A1 = (   3.8666999340,   0.0000000000,   0.0000000000)
 A2 = (   1.9333499670,   3.3486603717,   0.0000000000)
 A3 = (   1.9333499670,   1.1162201239,   3.1571472756)


Analysis of symmetry for initial positions (statically):
=====================================================================
 Subroutine PRICEL returns:
 Original cell was already a primitive cell.
 

 Routine SETGRP: Setting up the symmetry group for a 
 face centered cubic supercell.


 Subroutine GETGRP returns: Found 48 space group operations
 (whereof 12 operations were pure point group operations)
 out of a pool of 48 trial point group operations.


The static configuration has the point symmetry D_3d.
 The point group associated with its full space group is O_h .


Analysis of symmetry for dynamics (positions and initial velocities):
=====================================================================
 Subroutine PRICEL returns:
 Original cell was already a primitive cell.
 

 Routine SETGRP: Setting up the symmetry group for a 
 face centered cubic supercell.


 Subroutine GETGRP returns: Found 48 space group operations
 (whereof 12 operations were pure point group operations)
 out of a pool of 48 trial point group operations.


The dynamic configuration has the point symmetry D_3d.
 The point group associated with its full space group is O_h .
 
 
 KPOINTS: kpoints for bandstructure L-G-X-U K-G   
  interpolating k-points between supplied coordinates
  k-points in reciprocal lattice


--------------------------------------------------------------------------------------------------------




 Dimension of arrays:
   k-points           NKPTS =    160   k-points in BZ     NKDIM =    160   number of bands    NBANDS=      8
   number of dos      NEDOS =    301   number of ions     NIONS =      2
   non local maximal  LDIM  =      4   non local SUM 2l+1 LMDIM =      8
   total plane-waves  NPLWV =  21952
   max r-space proj   IRMAX =      1   max aug-charges    IRDMAX=  18152
   dimension x,y,z NGX =    28 NGY =   28 NGZ =   28
   dimension x,y,z NGXF=    56 NGYF=   56 NGZF=   56
   support grid    NGXF=    56 NGYF=   56 NGZF=   56
   ions per type =               2
 NGX,Y,Z   is equivalent  to a cutoff of  12.04, 12.04, 12.04 a.u.
 NGXF,Y,Z  is equivalent  to a cutoff of  24.08, 24.08, 24.08 a.u.


 I would recommend the setting:
   dimension x,y,z NGX =    25 NGY =   25 NGZ =   25
 SYSTEM =  unknown system                          
 POSCAR =  Si diamant                              

 Startparameter for this run:
   NWRITE =      2    write-flag & timer
   PREC   = accura    normal or accurate (medium, high low for compatibility)
   ISTART =      0    job   : 0-new  1-cont  2-samecut
   ICHARG =     11    charge: 1-file 2-atom 10-const
   ISPIN  =      1    spin polarized calculation?
   LNONCOLLINEAR =      F non collinear calculations
   LSORBIT =      F    spin-orbit coupling
   INIWAV =      1    electr: 0-lowe 1-rand  2-diag
   LASPH  =      F    aspherical Exc in radial PAW
   METAGGA=      F    non-selfconsistent MetaGGA calc.

 Electronic Relaxation 1
   ENCUT  =  400.0 eV  29.40 Ry    5.42 a.u.   6.31  6.31  6.31*2*pi/ulx,y,z
   ENINI  =  400.0     initial cutoff
   ENAUG  =  322.1 eV  augmentation charge cutoff
   NELM   =     60;   NELMIN=  6; NELMDL= -5     # of ELM steps 
   EDIFF  = 0.1E-05   stopping-criterion for ELM
   LREAL  =      F    real-space projection
   NLSPLINE    = F    spline interpolate recip. space projectors
   LCOMPAT=      F    compatible to vasp.4.4
   GGA_COMPAT  = T    GGA compatible to vasp.4.4-vasp.4.6
   LMAXPAW     = -100 max onsite density
   LMAXMIX     =    2 max onsite mixed and CHGCAR
   VOSKOWN=      0    Vosko Wilk Nusair interpolation
   ROPT   =    0.00000
 Ionic relaxation
   EDIFFG = 0.1E-04   stopping-criterion for IOM
   NSW    =      0    number of steps for IOM
   NBLOCK =      1;   KBLOCK =      1    inner block; outer block 
   IBRION =     -1    ionic relax: 0-MD 1-quasi-New 2-CG
   NFREE  =      0    steps in history (QN), initial steepest desc. (CG)
   ISIF   =      2    stress and relaxation
   IWAVPR =     10    prediction:  0-non 1-charg 2-wave 3-comb
   ISYM   =      2    0-nonsym 1-usesym 2-fastsym
   LCORR  =      T    Harris-Foulkes like correction to forces

   POTIM  = 0.5000    time-step for ionic-motion
   TEIN   =    0.0    initial temperature
   TEBEG  =    0.0;   TEEND  =   0.0 temperature during run
   SMASS  =  -3.00    Nose mass-parameter (am)
   estimated Nose-frequenzy (Omega)   =  0.10E-29 period in steps =****** mass=  -0.342E-27a.u.
   SCALEE = 1.0000    scale energy and forces
   NPACO  =    256;   APACO  = 16.0  distance and # of slots for P.C.
   PSTRESS=    0.0 pullay stress

  Mass of Ions in am
   POMASS =  28.09
  Ionic Valenz
   ZVAL   =   4.00
  Atomic Wigner-Seitz radii
   RWIGS  =  -1.00
  virtual crystal weights 
   VCA    =   1.00
   NELECT =       8.0000    total number of electrons
   NUPDOWN=      -1.0000    fix difference up-down

 DOS related values:
   EMIN   =  10.00;   EMAX   =-10.00  energy-range for DOS
   EFERMI =   0.00
   ISMEAR =     0;   SIGMA  =   0.05  broadening in eV -4-tet -1-fermi 0-gaus

 Electronic relaxation 2 (details)
   IALGO  =     38    algorithm
   LDIAG  =      T    sub-space diagonalisation (order eigenvalues)
   LSUBROT=      T    optimize rotation matrix (better conditioning)
   TURBO    =      0    0=normal 1=particle mesh
   IRESTART =      0    0=no restart 2=restart with 2 vectors
   NREBOOT  =      0    no. of reboots
   NMIN     =      0    reboot dimension
   EREF     =   0.00    reference energy to select bands
   IMIX   =      4    mixing-type and parameters
     AMIX     =   0.40;   BMIX     =  1.00
     AMIX_MAG =   1.60;   BMIX_MAG =  1.00
     AMIN     =   0.10
     WC   =   100.;   INIMIX=   1;  MIXPRE=   1;  MAXMIX= -45

 Intra band minimization:
   WEIMIN = 0.0000     energy-eigenvalue tresh-hold
   EBREAK =  0.31E-07  absolut break condition
   DEPER  =   0.30     relativ break condition  

   TIME   =   0.40     timestep for ELM

  volume/ion in A,a.u.               =      20.44       137.93
  Fermi-wavevector in a.u.,A,eV,Ry     =   0.950465  1.796118 12.291276  0.903383
  Thomas-Fermi vector in A             =   2.078844
 
 Write flags
   LWAVE  =      T    write WAVECAR
   LCHARG =      T    write CHGCAR
   LVTOT  =      F    write LOCPOT, total local potential
   LVHAR  =      F    write LOCPOT, Hartree potential only
   LELF   =      F    write electronic localiz. function (ELF)
   LORBIT =     11    0 simple, 1 ext, 2 COOP (PROOUT)


 Dipole corrections
   LMONO  =      F    monopole corrections only (constant potential shift)
   LDIPOL =      F    correct potential (dipole corrections)
   IDIPOL =      0    1-x, 2-y, 3-z, 4-all directions 
   EPSILON=  1.0000000 bulk dielectric constant

 Exchange correlation treatment:
   GGA     =    --    GGA type
   LEXCH   =     8    internal setting for exchange type
   VOSKOWN=      0    Vosko Wilk Nusair interpolation
   LHFCALC =     F    Hartree Fock is set to
   LHFONE  =     F    Hartree Fock one center treatment
   AEXX    =    0.0000 exact exchange contribution

 Linear response parameters
   LEPSILON=     F    determine dielectric tensor
   LRPA    =     F    only Hartree local field effects (RPA)
   LNABLA  =     F    use nabla operator in PAW spheres
   LVEL    =     F    velocity operator in full k-point grid
   LINTERFAST=   F  fast interpolation
   KINTER  =     0    interpolate to denser k-point grid
   CSHIFT  =0.1000    complex shift for real part using Kramers Kronig
   OMEGAMAX=  -1.0    maximum frequency
   DEG_THRESHOLD= 0.2000000E-02 threshold for treating states as degnerate
   RTIME   =    0.100 relaxation time in fs

 Orbital magnetization related:
   ORBITALMAG=     F  switch on orbital magnetization
   LCHIMAG   =     F  perturbation theory with respect to B field
   DQ        =  0.001000  dq finite difference perturbation B field



--------------------------------------------------------------------------------------------------------


 Static calculation
 charge density and potential remain constant during run
 non-spin polarized calculation
 Variant of blocked Davidson
 Davidson routine will perform the subspace rotation
 perform sub-space diagonalisation
    after iterative eigenvector-optimisation
 no mixing
 using additional bands            4
 reciprocal scheme for non local part
 use partial core corrections
 calculate Harris-corrections to forces 
   (improved forces if not selfconsistent)
 use gradient corrections 
 WARNING: stress and forces are not correct
  (second derivative of E(xc) not defined)
 use of overlap-Matrix (Vanderbilt PP)
 Gauss-broadening in eV      SIGMA  =   0.05


--------------------------------------------------------------------------------------------------------


  energy-cutoff  :      400.00
  volume of cell :       40.88
      direct lattice vectors                 reciprocal lattice vectors
     3.866699934  0.000000000  0.000000000     0.258618465 -0.149313440 -0.105580546
     1.933349967  3.348660372  0.000000000     0.000000000  0.298626880 -0.105580546
     1.933349967  1.116220124  3.157147276     0.000000000  0.000000000  0.316741638

  length of vectors
     3.866699934  3.866699934  3.866699934     0.316741638  0.316741638  0.316741638


 
 k-points in units of 2pi/SCALE and weight: kpoints for bandstructure L-G-X-U K-G   
   0.12930923  0.07465672  0.05279027       0.006
   0.12599361  0.07274245  0.05143668       0.006
   0.12267799  0.07082817  0.05008308       0.006
   0.11936237  0.06891390  0.04872948       0.006
   0.11604675  0.06699962  0.04737589       0.006
   0.11273113  0.06508535  0.04602229       0.006
   0.10941550  0.06317107  0.04466869       0.006
   0.10609988  0.06125680  0.04331510       0.006
   0.10278426  0.05934252  0.04196150       0.006
   0.09946864  0.05742825  0.04060790       0.006
   0.09615302  0.05551397  0.03925431       0.006
   0.09283740  0.05359970  0.03790071       0.006
   0.08952178  0.05168542  0.03654711       0.006
   0.08620615  0.04977115  0.03519352       0.006
   0.08289053  0.04785687  0.03383992       0.006
   0.07957491  0.04594260  0.03248632       0.006
   0.07625929  0.04402832  0.03113273       0.006
   0.07294367  0.04211405  0.02977913       0.006
   0.06962805  0.04019977  0.02842553       0.006
   0.06631243  0.03828550  0.02707193       0.006
   0.06299681  0.03637122  0.02571834       0.006
   0.05968118  0.03445695  0.02436474       0.006
   0.05636556  0.03254267  0.02301114       0.006
   0.05304994  0.03062840  0.02165755       0.006
   0.04973432  0.02871412  0.02030395       0.006
   0.04641870  0.02679985  0.01895035       0.006
   0.04310308  0.02488557  0.01759676       0.006
   0.03978746  0.02297130  0.01624316       0.006
   0.03647183  0.02105702  0.01488956       0.006
   0.03315621  0.01914275  0.01353597       0.006
   0.02984059  0.01722847  0.01218237       0.006
   0.02652497  0.01531420  0.01082877       0.006
   0.02320935  0.01339992  0.00947518       0.006
   0.01989373  0.01148565  0.00812158       0.006
   0.01657811  0.00957137  0.00676798       0.006
   0.01326249  0.00765710  0.00541439       0.006
   0.00994686  0.00574282  0.00406079       0.006
   0.00663124  0.00382855  0.00270719       0.006
   0.00331562  0.00191427  0.00135360       0.006
   0.00000000  0.00000000  0.00000000       0.006
   0.00000000  0.00000000  0.00000000       0.006
   0.00000000  0.00382855  0.00270719       0.006
   0.00000000  0.00765710  0.00541439       0.006
   0.00000000  0.01148565  0.00812158       0.006
   0.00000000  0.01531420  0.01082877       0.006
   0.00000000  0.01914275  0.01353597       0.006
   0.00000000  0.02297130  0.01624316       0.006
   0.00000000  0.02679985  0.01895035       0.006
   0.00000000  0.03062840  0.02165755       0.006
   0.00000000  0.03445695  0.02436474       0.006
   0.00000000  0.03828550  0.02707193       0.006
   0.00000000  0.04211405  0.02977913       0.006
   0.00000000  0.04594260  0.03248632       0.006
   0.00000000  0.04977115  0.03519352       0.006
   0.00000000  0.05359970  0.03790071       0.006
   0.00000000  0.05742825  0.04060790       0.006
   0.00000000  0.06125680  0.04331510       0.006
   0.00000000  0.06508535  0.04602229       0.006
   0.00000000  0.06891390  0.04872948       0.006
   0.00000000  0.07274245  0.05143668       0.006
   0.00000000  0.07657099  0.05414387       0.006
   0.00000000  0.08039954  0.05685106       0.006
   0.00000000  0.08422809  0.05955826       0.006
   0.00000000  0.08805664  0.06226545       0.006
   0.00000000  0.09188519  0.06497264       0.006
   0.00000000  0.09571374  0.06767984       0.006
   0.00000000  0.09954229  0.07038703       0.006
   0.00000000  0.10337084  0.07309422       0.006
   0.00000000  0.10719939  0.07580142       0.006
   0.00000000  0.11102794  0.07850861       0.006
   0.00000000  0.11485649  0.08121580       0.006
   0.00000000  0.11868504  0.08392300       0.006
   0.00000000  0.12251359  0.08663019       0.006
   0.00000000  0.12634214  0.08933739       0.006
   0.00000000  0.13017069  0.09204458       0.006
   0.00000000  0.13399924  0.09475177       0.006
   0.00000000  0.13782779  0.09745897       0.006
   0.00000000  0.14165634  0.10016616       0.006
   0.00000000  0.14548489  0.10287335       0.006
   0.00000000  0.14931344  0.10558055       0.006
   0.00000000  0.14931344  0.10558055       0.006
   0.00165781  0.14931344  0.10558055       0.006
   0.00331562  0.14931344  0.10558055       0.006
   0.00497343  0.14931344  0.10558055       0.006
   0.00663124  0.14931344  0.10558055       0.006
   0.00828905  0.14931344  0.10558055       0.006
   0.00994686  0.14931344  0.10558055       0.006
   0.01160467  0.14931344  0.10558055       0.006
   0.01326249  0.14931344  0.10558055       0.006
   0.01492030  0.14931344  0.10558055       0.006
   0.01657811  0.14931344  0.10558055       0.006
   0.01823592  0.14931344  0.10558055       0.006
   0.01989373  0.14931344  0.10558055       0.006
   0.02155154  0.14931344  0.10558055       0.006
   0.02320935  0.14931344  0.10558055       0.006
   0.02486716  0.14931344  0.10558055       0.006
   0.02652497  0.14931344  0.10558055       0.006
   0.02818278  0.14931344  0.10558055       0.006
   0.02984059  0.14931344  0.10558055       0.006
   0.03149840  0.14931344  0.10558055       0.006
   0.03315621  0.14931344  0.10558055       0.006
   0.03481402  0.14931344  0.10558055       0.006
   0.03647183  0.14931344  0.10558055       0.006
   0.03812965  0.14931344  0.10558055       0.006
   0.03978746  0.14931344  0.10558055       0.006
   0.04144527  0.14931344  0.10558055       0.006
   0.04310308  0.14931344  0.10558055       0.006
   0.04476089  0.14931344  0.10558055       0.006
   0.04641870  0.14931344  0.10558055       0.006
   0.04807651  0.14931344  0.10558055       0.006
   0.04973432  0.14931344  0.10558055       0.006
   0.05139213  0.14931344  0.10558055       0.006
   0.05304994  0.14931344  0.10558055       0.006
   0.05470775  0.14931344  0.10558055       0.006
   0.05636556  0.14931344  0.10558055       0.006
   0.05802337  0.14931344  0.10558055       0.006
   0.05968118  0.14931344  0.10558055       0.006
   0.06133899  0.14931344  0.10558055       0.006
   0.06299681  0.14931344  0.10558055       0.006
   0.06465462  0.14931344  0.10558055       0.006
   0.09698192  0.16797762  0.00000000       0.006
   0.09449521  0.16367050  0.00000000       0.006
   0.09200849  0.15936338  0.00000000       0.006
   0.08952178  0.15505626  0.00000000       0.006
   0.08703506  0.15074915  0.00000000       0.006
   0.08454834  0.14644203  0.00000000       0.006
   0.08206163  0.14213491  0.00000000       0.006
   0.07957491  0.13782779  0.00000000       0.006
   0.07708820  0.13352067  0.00000000       0.006
   0.07460148  0.12921355  0.00000000       0.006
   0.07211476  0.12490644  0.00000000       0.006
   0.06962805  0.12059932  0.00000000       0.006
   0.06714133  0.11629220  0.00000000       0.006
   0.06465462  0.11198508  0.00000000       0.006
   0.06216790  0.10767796  0.00000000       0.006
   0.05968118  0.10337084  0.00000000       0.006
   0.05719447  0.09906372  0.00000000       0.006
   0.05470775  0.09475661  0.00000000       0.006
   0.05222104  0.09044949  0.00000000       0.006
   0.04973432  0.08614237  0.00000000       0.006
   0.04724760  0.08183525  0.00000000       0.006
   0.04476089  0.07752813  0.00000000       0.006
   0.04227417  0.07322101  0.00000000       0.006
   0.03978746  0.06891390  0.00000000       0.006
   0.03730074  0.06460678  0.00000000       0.006
   0.03481402  0.06029966  0.00000000       0.006
   0.03232731  0.05599254  0.00000000       0.006
   0.02984059  0.05168542  0.00000000       0.006
   0.02735388  0.04737830  0.00000000       0.006
   0.02486716  0.04307118  0.00000000       0.006
   0.02238044  0.03876407  0.00000000       0.006
   0.01989373  0.03445695  0.00000000       0.006
   0.01740701  0.03014983  0.00000000       0.006
   0.01492030  0.02584271  0.00000000       0.006
   0.01243358  0.02153559  0.00000000       0.006
   0.00994686  0.01722847  0.00000000       0.006
   0.00746015  0.01292136  0.00000000       0.006
   0.00497343  0.00861424  0.00000000       0.006
   0.00248672  0.00430712  0.00000000       0.006
   0.00000000  0.00000000  0.00000000       0.006
 
 k-points in reciprocal lattice and weights: kpoints for bandstructure L-G-X-U K-G   
   0.50000000  0.50000000  0.50000000       0.006
   0.48717949  0.48717949  0.48717949       0.006
   0.47435897  0.47435897  0.47435897       0.006
   0.46153846  0.46153846  0.46153846       0.006
   0.44871795  0.44871795  0.44871795       0.006
   0.43589744  0.43589744  0.43589744       0.006
   0.42307692  0.42307692  0.42307692       0.006
   0.41025641  0.41025641  0.41025641       0.006
   0.39743590  0.39743590  0.39743590       0.006
   0.38461538  0.38461538  0.38461538       0.006
   0.37179487  0.37179487  0.37179487       0.006
   0.35897436  0.35897436  0.35897436       0.006
   0.34615385  0.34615385  0.34615385       0.006
   0.33333333  0.33333333  0.33333333       0.006
   0.32051282  0.32051282  0.32051282       0.006
   0.30769231  0.30769231  0.30769231       0.006
   0.29487179  0.29487179  0.29487179       0.006
   0.28205128  0.28205128  0.28205128       0.006
   0.26923077  0.26923077  0.26923077       0.006
   0.25641026  0.25641026  0.25641026       0.006
   0.24358974  0.24358974  0.24358974       0.006
   0.23076923  0.23076923  0.23076923       0.006
   0.21794872  0.21794872  0.21794872       0.006
   0.20512821  0.20512821  0.20512821       0.006
   0.19230769  0.19230769  0.19230769       0.006
   0.17948718  0.17948718  0.17948718       0.006
   0.16666667  0.16666667  0.16666667       0.006
   0.15384615  0.15384615  0.15384615       0.006
   0.14102564  0.14102564  0.14102564       0.006
   0.12820513  0.12820513  0.12820513       0.006
   0.11538462  0.11538462  0.11538462       0.006
   0.10256410  0.10256410  0.10256410       0.006
   0.08974359  0.08974359  0.08974359       0.006
   0.07692308  0.07692308  0.07692308       0.006
   0.06410256  0.06410256  0.06410256       0.006
   0.05128205  0.05128205  0.05128205       0.006
   0.03846154  0.03846154  0.03846154       0.006
   0.02564103  0.02564103  0.02564103       0.006
   0.01282051  0.01282051  0.01282051       0.006
   0.00000000  0.00000000  0.00000000       0.006
   0.00000000  0.00000000  0.00000000       0.006
   0.00000000  0.01282051  0.01282051       0.006
   0.00000000  0.02564103  0.02564103       0.006
   0.00000000  0.03846154  0.03846154       0.006
   0.00000000  0.05128205  0.05128205       0.006
   0.00000000  0.06410256  0.06410256       0.006
   0.00000000  0.07692308  0.07692308       0.006
   0.00000000  0.08974359  0.08974359       0.006
   0.00000000  0.10256410  0.10256410       0.006
   0.00000000  0.11538462  0.11538462       0.006
   0.00000000  0.12820513  0.12820513       0.006
   0.00000000  0.14102564  0.14102564       0.006
   0.00000000  0.15384615  0.15384615       0.006
   0.00000000  0.16666667  0.16666667       0.006
   0.00000000  0.17948718  0.17948718       0.006
   0.00000000  0.19230769  0.19230769       0.006
   0.00000000  0.20512821  0.20512821       0.006
   0.00000000  0.21794872  0.21794872       0.006
   0.00000000  0.23076923  0.23076923       0.006
   0.00000000  0.24358974  0.24358974       0.006
   0.00000000  0.25641026  0.25641026       0.006
   0.00000000  0.26923077  0.26923077       0.006
   0.00000000  0.28205128  0.28205128       0.006
   0.00000000  0.29487179  0.29487179       0.006
   0.00000000  0.30769231  0.30769231       0.006
   0.00000000  0.32051282  0.32051282       0.006
   0.00000000  0.33333333  0.33333333       0.006
   0.00000000  0.34615385  0.34615385       0.006
   0.00000000  0.35897436  0.35897436       0.006
   0.00000000  0.37179487  0.37179487       0.006
   0.00000000  0.38461538  0.38461538       0.006
   0.00000000  0.39743590  0.39743590       0.006
   0.00000000  0.41025641  0.41025641       0.006
   0.00000000  0.42307692  0.42307692       0.006
   0.00000000  0.43589744  0.43589744       0.006
   0.00000000  0.44871795  0.44871795       0.006
   0.00000000  0.46153846  0.46153846       0.006
   0.00000000  0.47435897  0.47435897       0.006
   0.00000000  0.48717949  0.48717949       0.006
   0.00000000  0.50000000  0.50000000       0.006
   0.00000000  0.50000000  0.50000000       0.006
   0.00641026  0.50320513  0.50320513       0.006
   0.01282051  0.50641026  0.50641026       0.006
   0.01923077  0.50961538  0.50961538       0.006
   0.02564103  0.51282051  0.51282051       0.006
   0.03205128  0.51602564  0.51602564       0.006
   0.03846154  0.51923077  0.51923077       0.006
   0.04487179  0.52243590  0.52243590       0.006
   0.05128205  0.52564103  0.52564103       0.006
   0.05769231  0.52884615  0.52884615       0.006
   0.06410256  0.53205128  0.53205128       0.006
   0.07051282  0.53525641  0.53525641       0.006
   0.07692308  0.53846154  0.53846154       0.006
   0.08333333  0.54166667  0.54166667       0.006
   0.08974359  0.54487179  0.54487179       0.006
   0.09615385  0.54807692  0.54807692       0.006
   0.10256410  0.55128205  0.55128205       0.006
   0.10897436  0.55448718  0.55448718       0.006
   0.11538462  0.55769231  0.55769231       0.006
   0.12179487  0.56089744  0.56089744       0.006
   0.12820513  0.56410256  0.56410256       0.006
   0.13461538  0.56730769  0.56730769       0.006
   0.14102564  0.57051282  0.57051282       0.006
   0.14743590  0.57371795  0.57371795       0.006
   0.15384615  0.57692308  0.57692308       0.006
   0.16025641  0.58012821  0.58012821       0.006
   0.16666667  0.58333333  0.58333333       0.006
   0.17307692  0.58653846  0.58653846       0.006
   0.17948718  0.58974359  0.58974359       0.006
   0.18589744  0.59294872  0.59294872       0.006
   0.19230769  0.59615385  0.59615385       0.006
   0.19871795  0.59935897  0.59935897       0.006
   0.20512821  0.60256410  0.60256410       0.006
   0.21153846  0.60576923  0.60576923       0.006
   0.21794872  0.60897436  0.60897436       0.006
   0.22435897  0.61217949  0.61217949       0.006
   0.23076923  0.61538462  0.61538462       0.006
   0.23717949  0.61858974  0.61858974       0.006
   0.24358974  0.62179487  0.62179487       0.006
   0.25000000  0.62500000  0.62500000       0.006
   0.37500000  0.75000000  0.37500000       0.006
   0.36538462  0.73076923  0.36538462       0.006
   0.35576923  0.71153846  0.35576923       0.006
   0.34615385  0.69230769  0.34615385       0.006
   0.33653846  0.67307692  0.33653846       0.006
   0.32692308  0.65384615  0.32692308       0.006
   0.31730769  0.63461538  0.31730769       0.006
   0.30769231  0.61538462  0.30769231       0.006
   0.29807692  0.59615385  0.29807692       0.006
   0.28846154  0.57692308  0.28846154       0.006
   0.27884615  0.55769231  0.27884615       0.006
   0.26923077  0.53846154  0.26923077       0.006
   0.25961538  0.51923077  0.25961538       0.006
   0.25000000  0.50000000  0.25000000       0.006
   0.24038462  0.48076923  0.24038462       0.006
   0.23076923  0.46153846  0.23076923       0.006
   0.22115385  0.44230769  0.22115385       0.006
   0.21153846  0.42307692  0.21153846       0.006
   0.20192308  0.40384615  0.20192308       0.006
   0.19230769  0.38461538  0.19230769       0.006
   0.18269231  0.36538462  0.18269231       0.006
   0.17307692  0.34615385  0.17307692       0.006
   0.16346154  0.32692308  0.16346154       0.006
   0.15384615  0.30769231  0.15384615       0.006
   0.14423077  0.28846154  0.14423077       0.006
   0.13461538  0.26923077  0.13461538       0.006
   0.12500000  0.25000000  0.12500000       0.006
   0.11538462  0.23076923  0.11538462       0.006
   0.10576923  0.21153846  0.10576923       0.006
   0.09615385  0.19230769  0.09615385       0.006
   0.08653846  0.17307692  0.08653846       0.006
   0.07692308  0.15384615  0.07692308       0.006
   0.06730769  0.13461538  0.06730769       0.006
   0.05769231  0.11538462  0.05769231       0.006
   0.04807692  0.09615385  0.04807692       0.006
   0.03846154  0.07692308  0.03846154       0.006
   0.02884615  0.05769231  0.02884615       0.006
   0.01923077  0.03846154  0.01923077       0.006
   0.00961538  0.01923077  0.00961538       0.006
   0.00000000  0.00000000  0.00000000       0.006
 
 position of ions in fractional coordinates (direct lattice) 
   0.12500000  0.12500000  0.12500000
   0.87500000  0.87500000  0.87500000
 
 position of ions in cartesian coordinates  (Angst):
   0.96667498  0.55811006  0.39464341
   6.76672488  3.90677043  2.76250387
 


--------------------------------------------------------------------------------------------------------


 k-point  1 :   0.5000 0.5000 0.5000  plane waves:     754
 k-point  2 :   0.4872 0.4872 0.4872  plane waves:     754
 k-point  3 :   0.4744 0.4744 0.4744  plane waves:     754
 k-point  4 :   0.4615 0.4615 0.4615  plane waves:     748
 k-point  5 :   0.4487 0.4487 0.4487  plane waves:     751
 k-point  6 :   0.4359 0.4359 0.4359  plane waves:     751
 k-point  7 :   0.4231 0.4231 0.4231  plane waves:     757
 k-point  8 :   0.4103 0.4103 0.4103  plane waves:     751
 k-point  9 :   0.3974 0.3974 0.3974  plane waves:     754
 k-point 10 :   0.3846 0.3846 0.3846  plane waves:     751
 k-point 11 :   0.3718 0.3718 0.3718  plane waves:     751
 k-point 12 :   0.3590 0.3590 0.3590  plane waves:     751
 k-point 13 :   0.3462 0.3462 0.3462  plane waves:     751
 k-point 14 :   0.3333 0.3333 0.3333  plane waves:     751
 k-point 15 :   0.3205 0.3205 0.3205  plane waves:     751
 k-point 16 :   0.3077 0.3077 0.3077  plane waves:     751
 k-point 17 :   0.2949 0.2949 0.2949  plane waves:     757
 k-point 18 :   0.2821 0.2821 0.2821  plane waves:     757
 k-point 19 :   0.2692 0.2692 0.2692  plane waves:     754
 k-point 20 :   0.2564 0.2564 0.2564  plane waves:     751
 k-point 21 :   0.2436 0.2436 0.2436  plane waves:     751
 k-point 22 :   0.2308 0.2308 0.2308  plane waves:     745
 k-point 23 :   0.2179 0.2179 0.2179  plane waves:     745
 k-point 24 :   0.2051 0.2051 0.2051  plane waves:     745
 k-point 25 :   0.1923 0.1923 0.1923  plane waves:     739
 k-point 26 :   0.1795 0.1795 0.1795  plane waves:     739
 k-point 27 :   0.1667 0.1667 0.1667  plane waves:     748
 k-point 28 :   0.1538 0.1538 0.1538  plane waves:     739
 k-point 29 :   0.1410 0.1410 0.1410  plane waves:     740
 k-point 30 :   0.1282 0.1282 0.1282  plane waves:     740
 k-point 31 :   0.1154 0.1154 0.1154  plane waves:     737
 k-point 32 :   0.1026 0.1026 0.1026  plane waves:     737
 k-point 33 :   0.0897 0.0897 0.0897  plane waves:     737
 k-point 34 :   0.0769 0.0769 0.0769  plane waves:     737
 k-point 35 :   0.0641 0.0641 0.0641  plane waves:     737
 k-point 36 :   0.0513 0.0513 0.0513  plane waves:     731
 k-point 37 :   0.0385 0.0385 0.0385  plane waves:     731
 k-point 38 :   0.0256 0.0256 0.0256  plane waves:     731
 k-point 39 :   0.0128 0.0128 0.0128  plane waves:     725
 k-point 40 :   0.0000 0.0000 0.0000  plane waves:     725
 k-point 41 :   0.0000 0.0000 0.0000  plane waves:     725
 k-point 42 :   0.0000 0.0128 0.0128  plane waves:     725
 k-point 43 :   0.0000 0.0256 0.0256  plane waves:     729
 k-point 44 :   0.0000 0.0385 0.0385  plane waves:     733
 k-point 45 :   0.0000 0.0513 0.0513  plane waves:     733
 k-point 46 :   0.0000 0.0641 0.0641  plane waves:     733
 k-point 47 :   0.0000 0.0769 0.0769  plane waves:     733
 k-point 48 :   0.0000 0.0897 0.0897  plane waves:     733
 k-point 49 :   0.0000 0.1026 0.1026  plane waves:     737
 k-point 50 :   0.0000 0.1154 0.1154  plane waves:     737
 k-point 51 :   0.0000 0.1282 0.1282  plane waves:     745
 k-point 52 :   0.0000 0.1410 0.1410  plane waves:     745
 k-point 53 :   0.0000 0.1538 0.1538  plane waves:     745
 k-point 54 :   0.0000 0.1667 0.1667  plane waves:     737
 k-point 55 :   0.0000 0.1795 0.1795  plane waves:     737
 k-point 56 :   0.0000 0.1923 0.1923  plane waves:     745
 k-point 57 :   0.0000 0.2051 0.2051  plane waves:     745
 k-point 58 :   0.0000 0.2179 0.2179  plane waves:     733
 k-point 59 :   0.0000 0.2308 0.2308  plane waves:     729
 k-point 60 :   0.0000 0.2436 0.2436  plane waves:     729
 k-point 61 :   0.0000 0.2564 0.2564  plane waves:     729
 k-point 62 :   0.0000 0.2692 0.2692  plane waves:     729
 k-point 63 :   0.0000 0.2821 0.2821  plane waves:     729
 k-point 64 :   0.0000 0.2949 0.2949  plane waves:     729
 k-point 65 :   0.0000 0.3077 0.3077  plane waves:     733
 k-point 66 :   0.0000 0.3205 0.3205  plane waves:     733
 k-point 67 :   0.0000 0.3333 0.3333  plane waves:     749
 k-point 68 :   0.0000 0.3462 0.3462  plane waves:     745
 k-point 69 :   0.0000 0.3590 0.3590  plane waves:     745
 k-point 70 :   0.0000 0.3718 0.3718  plane waves:     741
 k-point 71 :   0.0000 0.3846 0.3846  plane waves:     749
 k-point 72 :   0.0000 0.3974 0.3974  plane waves:     749
 k-point 73 :   0.0000 0.4103 0.4103  plane waves:     749
 k-point 74 :   0.0000 0.4231 0.4231  plane waves:     745
 k-point 75 :   0.0000 0.4359 0.4359  plane waves:     745
 k-point 76 :   0.0000 0.4487 0.4487  plane waves:     741
 k-point 77 :   0.0000 0.4615 0.4615  plane waves:     740
 k-point 78 :   0.0000 0.4744 0.4744  plane waves:     740
 k-point 79 :   0.0000 0.4872 0.4872  plane waves:     740
 k-point 80 :   0.0000 0.5000 0.5000  plane waves:     740
 k-point 81 :   0.0000 0.5000 0.5000  plane waves:     740
 k-point 82 :   0.0064 0.5032 0.5032  plane waves:     740
 k-point 83 :   0.0128 0.5064 0.5064  plane waves:     740
 k-point 84 :   0.0192 0.5096 0.5096  plane waves:     740
 k-point 85 :   0.0256 0.5128 0.5128  plane waves:     740
 k-point 86 :   0.0321 0.5160 0.5160  plane waves:     740
 k-point 87 :   0.0385 0.5192 0.5192  plane waves:     740
 k-point 88 :   0.0449 0.5224 0.5224  plane waves:     740
 k-point 89 :   0.0513 0.5256 0.5256  plane waves:     740
 k-point 90 :   0.0577 0.5288 0.5288  plane waves:     740
 k-point 91 :   0.0641 0.5321 0.5321  plane waves:     742
 k-point 92 :   0.0705 0.5353 0.5353  plane waves:     742
 k-point 93 :   0.0769 0.5385 0.5385  plane waves:     742
 k-point 94 :   0.0833 0.5417 0.5417  plane waves:     742
 k-point 95 :   0.0897 0.5449 0.5449  plane waves:     742
 k-point 96 :   0.0962 0.5481 0.5481  plane waves:     744
 k-point 97 :   0.1026 0.5513 0.5513  plane waves:     744
 k-point 98 :   0.1090 0.5545 0.5545  plane waves:     744
 k-point 99 :   0.1154 0.5577 0.5577  plane waves:     744
 k-point ** :   0.1218 0.5609 0.5609  plane waves:     744
 k-point ** :   0.1282 0.5641 0.5641  plane waves:     738
 k-point ** :   0.1346 0.5673 0.5673  plane waves:     738
 k-point ** :   0.1410 0.5705 0.5705  plane waves:     738
 k-point ** :   0.1474 0.5737 0.5737  plane waves:     738
 k-point ** :   0.1538 0.5769 0.5769  plane waves:     738
 k-point ** :   0.1603 0.5801 0.5801  plane waves:     740
 k-point ** :   0.1667 0.5833 0.5833  plane waves:     740
 k-point ** :   0.1731 0.5865 0.5865  plane waves:     740
 k-point ** :   0.1795 0.5897 0.5897  plane waves:     740
 k-point ** :   0.1859 0.5929 0.5929  plane waves:     740
 k-point ** :   0.1923 0.5962 0.5962  plane waves:     740
 k-point ** :   0.1987 0.5994 0.5994  plane waves:     744
 k-point ** :   0.2051 0.6026 0.6026  plane waves:     740
 k-point ** :   0.2115 0.6058 0.6058  plane waves:     740
 k-point ** :   0.2179 0.6090 0.6090  plane waves:     742
 k-point ** :   0.2244 0.6122 0.6122  plane waves:     742
 k-point ** :   0.2308 0.6154 0.6154  plane waves:     740
 k-point ** :   0.2372 0.6186 0.6186  plane waves:     740
 k-point ** :   0.2436 0.6218 0.6218  plane waves:     740
 k-point ** :   0.2500 0.6250 0.6250  plane waves:     740
 k-point ** :   0.3750 0.7500 0.3750  plane waves:     740
 k-point ** :   0.3654 0.7308 0.3654  plane waves:     734
 k-point ** :   0.3558 0.7115 0.3558  plane waves:     734
 k-point ** :   0.3462 0.6923 0.3462  plane waves:     734
 k-point ** :   0.3365 0.6731 0.3365  plane waves:     730
 k-point ** :   0.3269 0.6538 0.3269  plane waves:     736
 k-point ** :   0.3173 0.6346 0.3173  plane waves:     736
 k-point ** :   0.3077 0.6154 0.3077  plane waves:     736
 k-point ** :   0.2981 0.5962 0.2981  plane waves:     732
 k-point ** :   0.2885 0.5769 0.2885  plane waves:     736
 k-point ** :   0.2788 0.5577 0.2788  plane waves:     744
 k-point ** :   0.2692 0.5385 0.2692  plane waves:     750
 k-point ** :   0.2596 0.5192 0.2596  plane waves:     750
 k-point ** :   0.2500 0.5000 0.2500  plane waves:     754
 k-point ** :   0.2404 0.4808 0.2404  plane waves:     746
 k-point ** :   0.2308 0.4615 0.2308  plane waves:     746
 k-point ** :   0.2212 0.4423 0.2212  plane waves:     742
 k-point ** :   0.2115 0.4231 0.2115  plane waves:     742
 k-point ** :   0.2019 0.4038 0.2019  plane waves:     742
 k-point ** :   0.1923 0.3846 0.1923  plane waves:     738
 k-point ** :   0.1827 0.3654 0.1827  plane waves:     738
 k-point ** :   0.1731 0.3462 0.1731  plane waves:     748
 k-point ** :   0.1635 0.3269 0.1635  plane waves:     748
 k-point ** :   0.1538 0.3077 0.1538  plane waves:     748
 k-point ** :   0.1442 0.2885 0.1442  plane waves:     749
 k-point ** :   0.1346 0.2692 0.1346  plane waves:     753
 k-point ** :   0.1250 0.2500 0.1250  plane waves:     753
 k-point ** :   0.1154 0.2308 0.1154  plane waves:     753
 k-point ** :   0.1058 0.2115 0.1058  plane waves:     747
 k-point ** :   0.0962 0.1923 0.0962  plane waves:     747
 k-point ** :   0.0865 0.1731 0.0865  plane waves:     739
 k-point ** :   0.0769 0.1538 0.0769  plane waves:     739
 k-point ** :   0.0673 0.1346 0.0673  plane waves:     737
 k-point ** :   0.0577 0.1154 0.0577  plane waves:     737
 k-point ** :   0.0481 0.0962 0.0481  plane waves:     737
 k-point ** :   0.0385 0.0769 0.0385  plane waves:     737
 k-point ** :   0.0288 0.0577 0.0288  plane waves:     731
 k-point ** :   0.0192 0.0385 0.0192  plane waves:     731
 k-point ** :   0.0096 0.0192 0.0096  plane waves:     725
 k-point ** :   0.0000 0.0000 0.0000  plane waves:     725

 maximum and minimum number of plane-waves per node :       757      725

 maximum number of plane-waves:       757
 maximum index in each direction: 
   IXMAX=    6   IYMAX=    6   IZMAX=    6
   IXMIN=   -6   IYMIN=   -7   IZMIN=   -6

 NGX is ok and might be reduce to  26
 NGY is ok and might be reduce to  28
 NGZ is ok and might be reduce to  26

 serial   3D FFT for wavefunctions
 parallel 3D FFT for charge:
    minimum data exchange during FFTs selected (reduces bandwidth)


 total amount of memory used by VASP on root node    46452. kBytes
========================================================================

   base      :      30000. kBytes
   nonl-proj :       7806. kBytes
   fftplans  :       1619. kBytes
   grid      :       3048. kBytes
   one-center:          6. kBytes
   wavefun   :       3973. kBytes
 
 initial charge density was supplied:
 number of electron       8.0000000 magnetization 
 keeping initial charge density in first step


--------------------------------------------------------------------------------------------------------


 Maximum index for augmentation-charges         4398 (set IRDMAX)


--------------------------------------------------------------------------------------------------------


 First call to EWALD:  gamma=   0.515
 Maximum number of real-space cells 3x 3x 3
 Maximum number of reciprocal cells 3x 3x 3

 FEWALD executed in parallel
    FEWALD:  cpu time    0.01: real time    0.02


----------------------------------------- Iteration    1(   1)  ---------------------------------------


    POTLOK:  cpu time    0.16: real time    0.18
    SETDIJ:  cpu time    0.01: real time    0.01
     EDDAV:  cpu time    2.30: real time    2.38
       DOS:  cpu time    0.00: real time    0.00
    --------------------------------------------
      LOOP:  cpu time    2.47: real time    2.58

 eigenvalue-minimisations  :  2568
 total energy-change (2. order) : 0.6871684E+01  (-0.2718612E+03)
 number of electron       8.0000000 magnetization 
 augmentation part        8.0000000 magnetization 

 Free energy of the ion-electron system (eV)
  ---------------------------------------------------
  alpha Z        PSCENC =         3.29387720
  Ewald energy   TEWEN  =      -226.96102592
  -1/2 Hartree   DENC   =       -15.18137941
  -exchange  EXHF       =         0.00000000
  -V(xc)+E(xc)   XCENC  =       -18.05649600
  PAW double counting   =        73.62591634      -38.64529723
  entropy T*S    EENTRO =        -0.00107533
  eigenvalues    EBANDS =        22.66567204
  atomic energy  EATOM  =       206.13149246
  ---------------------------------------------------
  free energy    TOTEN  =         6.87168414 eV

  energy without entropy =        6.87275947  energy(sigma->0) =        6.87222181


--------------------------------------------------------------------------------------------------------




----------------------------------------- Iteration    1(   2)  ---------------------------------------


     EDDAV:  cpu time    3.34: real time    3.38
       DOS:  cpu time    0.00: real time    0.00
    --------------------------------------------
      LOOP:  cpu time    3.34: real time    3.40

 eigenvalue-minimisations  :  4056
 total energy-change (2. order) :-0.1369018E+02  (-0.1302308E+02)
 number of electron       8.0000000 magnetization 
 augmentation part        8.0000000 magnetization 

 Free energy of the ion-electron system (eV)
  ---------------------------------------------------
  alpha Z        PSCENC =         3.29387720
  Ewald energy   TEWEN  =      -226.96102592
  -1/2 Hartree   DENC   =       -15.18137941
  -exchange  EXHF       =         0.00000000
  -V(xc)+E(xc)   XCENC  =       -18.05649600
  PAW double counting   =        73.62591634      -38.64529723
  entropy T*S    EENTRO =         0.00000000
  eigenvalues    EBANDS =         8.97441863
  atomic energy  EATOM  =       206.13149246
  ---------------------------------------------------
  free energy    TOTEN  =        -6.81849394 eV

  energy without entropy =       -6.81849394  energy(sigma->0) =       -6.81849394


--------------------------------------------------------------------------------------------------------




----------------------------------------- Iteration    1(   3)  ---------------------------------------


     EDDAV:  cpu time    2.74: real time    2.79
       DOS:  cpu time    0.00: real time    0.00
    --------------------------------------------
      LOOP:  cpu time    2.74: real time    2.82

 eigenvalue-minimisations  :  3328
 total energy-change (2. order) :-0.1874868E+00  (-0.1874868E+00)
 number of electron       8.0000000 magnetization 
 augmentation part        8.0000000 magnetization 

 Free energy of the ion-electron system (eV)
  ---------------------------------------------------
  alpha Z        PSCENC =         3.29387720
  Ewald energy   TEWEN  =      -226.96102592
  -1/2 Hartree   DENC   =       -15.18137941
  -exchange  EXHF       =         0.00000000
  -V(xc)+E(xc)   XCENC  =       -18.05649600
  PAW double counting   =        73.62591634      -38.64529723
  entropy T*S    EENTRO =         0.00000000
  eigenvalues    EBANDS =         8.78693187
  atomic energy  EATOM  =       206.13149246
  ---------------------------------------------------
  free energy    TOTEN  =        -7.00598070 eV

  energy without entropy =       -7.00598070  energy(sigma->0) =       -7.00598070


--------------------------------------------------------------------------------------------------------




----------------------------------------- Iteration    1(   4)  ---------------------------------------


     EDDAV:  cpu time    3.63: real time    3.78
       DOS:  cpu time    0.00: real time    0.00
    --------------------------------------------
      LOOP:  cpu time    3.63: real time    3.81

 eigenvalue-minimisations  :  4312
 total energy-change (2. order) :-0.8703595E-03  (-0.8703598E-03)
 number of electron       8.0000000 magnetization 
 augmentation part        8.0000000 magnetization 

 Free energy of the ion-electron system (eV)
  ---------------------------------------------------
  alpha Z        PSCENC =         3.29387720
  Ewald energy   TEWEN  =      -226.96102592
  -1/2 Hartree   DENC   =       -15.18137941
  -exchange  EXHF       =         0.00000000
  -V(xc)+E(xc)   XCENC  =       -18.05649600
  PAW double counting   =        73.62591634      -38.64529723
  entropy T*S    EENTRO =         0.00000000
  eigenvalues    EBANDS =         8.78606151
  atomic energy  EATOM  =       206.13149246
  ---------------------------------------------------
  free energy    TOTEN  =        -7.00685105 eV

  energy without entropy =       -7.00685105  energy(sigma->0) =       -7.00685105


--------------------------------------------------------------------------------------------------------




----------------------------------------- Iteration    1(   5)  ---------------------------------------


     EDDAV:  cpu time    4.04: real time    4.45
       DOS:  cpu time    0.00: real time    0.00
    --------------------------------------------
      LOOP:  cpu time    4.04: real time    4.49

 eigenvalue-minimisations  :  3520
 total energy-change (2. order) :-0.1159190E-05  (-0.1159190E-05)
 number of electron       8.0000000 magnetization 
 augmentation part        8.0000000 magnetization 

 Free energy of the ion-electron system (eV)
  ---------------------------------------------------
  alpha Z        PSCENC =         3.29387720
  Ewald energy   TEWEN  =      -226.96102592
  -1/2 Hartree   DENC   =       -15.18137941
  -exchange  EXHF       =         0.00000000
  -V(xc)+E(xc)   XCENC  =       -18.05649600
  PAW double counting   =        73.62591634      -38.64529723
  entropy T*S    EENTRO =         0.00000000
  eigenvalues    EBANDS =         8.78606035
  atomic energy  EATOM  =       206.13149246
  ---------------------------------------------------
  free energy    TOTEN  =        -7.00685221 eV

  energy without entropy =       -7.00685221  energy(sigma->0) =       -7.00685221


--------------------------------------------------------------------------------------------------------




----------------------------------------- Iteration    1(   6)  ---------------------------------------


     EDDAV:  cpu time    5.08: real time    6.58
       DOS:  cpu time    0.00: real time    0.00
    --------------------------------------------
      LOOP:  cpu time    5.09: real time    6.61

 eigenvalue-minimisations  :  4248
 total energy-change (2. order) :-0.1607330E-07  (-0.1607328E-07)
 number of electron       8.0000000 magnetization 
 augmentation part        8.0000000 magnetization 

 Free energy of the ion-electron system (eV)
  ---------------------------------------------------
  alpha Z        PSCENC =         3.29387720
  Ewald energy   TEWEN  =      -226.96102592
  -1/2 Hartree   DENC   =       -15.18137941
  -exchange  EXHF       =         0.00000000
  -V(xc)+E(xc)   XCENC  =       -18.05649600
  PAW double counting   =        73.62591634      -38.64529723
  entropy T*S    EENTRO =         0.00000000
  eigenvalues    EBANDS =         8.78606033
  atomic energy  EATOM  =       206.13149246
  ---------------------------------------------------
  free energy    TOTEN  =        -7.00685223 eV

  energy without entropy =       -7.00685223  energy(sigma->0) =       -7.00685223


--------------------------------------------------------------------------------------------------------




 average (electrostatic) potential at core
  the test charge radii are     0.9892
  (the norm of the test charge is              1.0000)
       1 -83.4770       2 -83.4770
 
 
 
 E-fermi :   5.8847     XC(G=0):  -9.3272     alpha+bet :-11.7342


 k-point   1 :       0.5000    0.5000    0.5000
  band No.  band energies     occupation 
      1      -3.9174      2.00000
      2      -1.2502      2.00000
      3       4.4410      2.00000
      4       4.4410      2.00000
      5       7.0872      0.00000
      6       8.9688      0.00000
      7       8.9688      0.00000
      8      13.3223      0.00000

 k-point   2 :       0.4872    0.4872    0.4872
  band No.  band energies     occupation 
      1      -3.9265      2.00000
      2      -1.2371      2.00000
      3       4.4421      2.00000
      4       4.4421      2.00000
      5       7.0886      0.00000
      6       8.9701      0.00000
      7       8.9701      0.00000
      8      13.3243      0.00000

 k-point   3 :       0.4744    0.4744    0.4744
  band No.  band energies     occupation 
      1      -3.9533      2.00000
      2      -1.1983      2.00000
      3       4.4456      2.00000
      4       4.4456      2.00000
      5       7.0927      0.00000
      6       8.9740      0.00000
      7       8.9740      0.00000
      8      13.3302      0.00000

 k-point   4 :       0.4615    0.4615    0.4615
  band No.  band energies     occupation 
      1      -3.9963      2.00000
      2      -1.1353      2.00000
      3       4.4515      2.00000
      4       4.4515      2.00000
      5       7.0995      0.00000
      6       8.9805      0.00000
      7       8.9805      0.00000
      8      13.3400      0.00000

 k-point   5 :       0.4487    0.4487    0.4487
  band No.  band energies     occupation 
      1      -4.0533      2.00000
      2      -1.0503      2.00000
      3       4.4596      2.00000
      4       4.4596      2.00000
      5       7.1090      0.00000
      6       8.9892      0.00000
      7       8.9892      0.00000
      8      13.3533      0.00000

 k-point   6 :       0.4359    0.4359    0.4359
  band No.  band energies     occupation 
      1      -4.1218      2.00000
      2      -0.9458      2.00000
      3       4.4701      2.00000
      4       4.4701      2.00000
      5       7.1212      0.00000
      6       9.0001      0.00000
      7       9.0001      0.00000
      8      13.3697      0.00000

 k-point   7 :       0.4231    0.4231    0.4231
  band No.  band energies     occupation 
      1      -4.1995      2.00000
      2      -0.8242      2.00000
      3       4.4830      2.00000
      4       4.4830      2.00000
      5       7.1361      0.00000
      6       9.0130      0.00000
      7       9.0130      0.00000
      8      13.3885      0.00000

 k-point   8 :       0.4103    0.4103    0.4103
  band No.  band energies     occupation 
      1      -4.2839      2.00000
      2      -0.6879      2.00000
      3       4.4981      2.00000
      4       4.4981      2.00000
      5       7.1537      0.00000
      6       9.0276      0.00000
      7       9.0276      0.00000
      8      13.4089      0.00000

 k-point   9 :       0.3974    0.3974    0.3974
  band No.  band energies     occupation 
      1      -4.3733      2.00000
      2      -0.5388      2.00000
      3       4.5155      2.00000
      4       4.5155      2.00000
      5       7.1739      0.00000
      6       9.0434      0.00000
      7       9.0434      0.00000
      8      13.4293      0.00000

 k-point  10 :       0.3846    0.3846    0.3846
  band No.  band energies     occupation 
      1      -4.4660      2.00000
      2      -0.3785      2.00000
      3       4.5353      2.00000
      4       4.5353      2.00000
      5       7.1966      0.00000
      6       9.0601      0.00000
      7       9.0601      0.00000
      8      13.4476      0.00000

 k-point  11 :       0.3718    0.3718    0.3718
  band No.  band energies     occupation 
      1      -4.5607      2.00000
      2      -0.2085      2.00000
      3       4.5573      2.00000
      4       4.5573      2.00000
      5       7.2220      0.00000
      6       9.0770      0.00000
      7       9.0770      0.00000
      8      13.4605      0.00000

 k-point  12 :       0.3590    0.3590    0.3590
  band No.  band energies     occupation 
      1      -4.6562      2.00000
      2      -0.0299      2.00000
      3       4.5817      2.00000
      4       4.5817      2.00000
      5       7.2499      0.00000
      6       9.0936      0.00000
      7       9.0936      0.00000
      8      13.4628      0.00000

 k-point  13 :       0.3462    0.3462    0.3462
  band No.  band energies     occupation 
      1      -4.7516      2.00000
      2       0.1563      2.00000
      3       4.6082      2.00000
      4       4.6082      2.00000
      5       7.2803      0.00000
      6       9.1093      0.00000
      7       9.1093      0.00000
      8      13.4475      0.00000

 k-point  14 :       0.3333    0.3333    0.3333
  band No.  band energies     occupation 
      1      -4.8463      2.00000
      2       0.3494      2.00000
      3       4.6370      2.00000
      4       4.6370      2.00000
      5       7.3132      0.00000
      6       9.1231      0.00000
      7       9.1231      0.00000
      8      13.4084      0.00000

 k-point  15 :       0.3205    0.3205    0.3205
  band No.  band energies     occupation 
      1      -4.9397      2.00000
      2       0.5487      2.00000
      3       4.6679      2.00000
      4       4.6679      2.00000
      5       7.3484      0.00000
      6       9.1344      0.00000
      7       9.1344      0.00000
      8      13.3387      0.00000

 k-point  16 :       0.3077    0.3077    0.3077
  band No.  band energies     occupation 
      1      -5.0312      2.00000
      2       0.7536      2.00000
      3       4.7010      2.00000
      4       4.7010      2.00000
      5       7.3859      0.00000
      6       9.1422      0.00000
      7       9.1422      0.00000
      8      13.2426      0.00000

 k-point  17 :       0.2949    0.2949    0.2949
  band No.  band energies     occupation 
      1      -5.1206      2.00000
      2       0.9636      2.00000
      3       4.7361      2.00000
      4       4.7361      2.00000
      5       7.4255      0.00000
      6       9.1455      0.00000
      7       9.1455      0.00000
      8      13.0642      0.00000

 k-point  18 :       0.2821    0.2821    0.2821
  band No.  band energies     occupation 
      1      -5.2074      2.00000
      2       1.1783      2.00000
      3       4.7733      2.00000
      4       4.7733      2.00000
      5       7.4673      0.00000
      6       9.1436      0.00000
      7       9.1436      0.00000
      8      12.8816      0.00000

 k-point  19 :       0.2692    0.2692    0.2692
  band No.  band energies     occupation 
      1      -5.2914      2.00000
      2       1.3973      2.00000
      3       4.8124      2.00000
      4       4.8124      2.00000
      5       7.5110      0.00000
      6       9.1354      0.00000
      7       9.1354      0.00000
      8      12.6864      0.00000

 k-point  20 :       0.2564    0.2564    0.2564
  band No.  band energies     occupation 
      1      -5.3724      2.00000
      2       1.6201      2.00000
      3       4.8533      2.00000
      4       4.8533      2.00000
      5       7.5566      0.00000
      6       9.1203      0.00000
      7       9.1203      0.00000
      8      12.4801      0.00000

 k-point  21 :       0.2436    0.2436    0.2436
  band No.  band energies     occupation 
      1      -5.4501      2.00000
      2       1.8465      2.00000
      3       4.8960      2.00000
      4       4.8960      2.00000
      5       7.6037      0.00000
      6       9.0978      0.00000
      7       9.0978      0.00000
      8      12.2664      0.00000

 k-point  22 :       0.2308    0.2308    0.2308
  band No.  band energies     occupation 
      1      -5.5245      2.00000
      2       2.0761      2.00000
      3       4.9403      2.00000
      4       4.9403      2.00000
      5       7.6522      0.00000
      6       9.0676      0.00000
      7       9.0676      0.00000
      8      12.0439      0.00000

 k-point  23 :       0.2179    0.2179    0.2179
  band No.  band energies     occupation 
      1      -5.5954      2.00000
      2       2.3083      2.00000
      3       4.9860      2.00000
      4       4.9860      2.00000
      5       7.7020      0.00000
      6       9.0297      0.00000
      7       9.0297      0.00000
      8      11.8193      0.00000

 k-point  24 :       0.2051    0.2051    0.2051
  band No.  band energies     occupation 
      1      -5.6627      2.00000
      2       2.5430      2.00000
      3       5.0329      2.00000
      4       5.0329      2.00000
      5       7.7526      0.00000
      6       8.9844      0.00000
      7       8.9844      0.00000
      8      11.5918      0.00000

 k-point  25 :       0.1923    0.1923    0.1923
  band No.  band energies     occupation 
      1      -5.7263      2.00000
      2       2.7796      2.00000
      3       5.0809      2.00000
      4       5.0809      2.00000
      5       7.8037      0.00000
      6       8.9325      0.00000
      7       8.9325      0.00000
      8      11.3623      0.00000

 k-point  26 :       0.1795    0.1795    0.1795
  band No.  band energies     occupation 
      1      -5.7861      2.00000
      2       3.0175      2.00000
      3       5.1297      2.00000
      4       5.1297      2.00000
      5       7.8551      0.00000
      6       8.8747      0.00000
      7       8.8747      0.00000
      8      11.1315      0.00000

 k-point  27 :       0.1667    0.1667    0.1667
  band No.  band energies     occupation 
      1      -5.8420      2.00000
      2       3.2563      2.00000
      3       5.1789      2.00000
      4       5.1789      2.00000
      5       7.9062      0.00000
      6       8.8121      0.00000
      7       8.8121      0.00000
      8      10.9001      0.00000

 k-point  28 :       0.1538    0.1538    0.1538
  band No.  band energies     occupation 
      1      -5.8939      2.00000
      2       3.4953      2.00000
      3       5.2282      2.00000
      4       5.2282      2.00000
      5       7.9566      0.00000
      6       8.7461      0.00000
      7       8.7461      0.00000
      8      10.6690      0.00000

 k-point  29 :       0.1410    0.1410    0.1410
  band No.  band energies     occupation 
      1      -5.9419      2.00000
      2       3.7335      2.00000
      3       5.2772      2.00000
      4       5.2772      2.00000
      5       8.0055      0.00000
      6       8.6781      0.00000
      7       8.6781      0.00000
      8      10.4388      0.00000

 k-point  30 :       0.1282    0.1282    0.1282
  band No.  band energies     occupation 
      1      -5.9858      2.00000
      2       3.9701      2.00000
      3       5.3254      2.00000
      4       5.3254      2.00000
      5       8.0523      0.00000
      6       8.6093      0.00000
      7       8.6093      0.00000
      8      10.2109      0.00000

 k-point  31 :       0.1154    0.1154    0.1154
  band No.  band energies     occupation 
      1      -6.0257      2.00000
      2       4.2037      2.00000
      3       5.3723      2.00000
      4       5.3723      2.00000
      5       8.0960      0.00000
      6       8.5411      0.00000
      7       8.5411      0.00000
      8       9.9867      0.00000

 k-point  32 :       0.1026    0.1026    0.1026
  band No.  band energies     occupation 
      1      -6.0614      2.00000
      2       4.4326      2.00000
      3       5.4172      2.00000
      4       5.4172      2.00000
      5       8.1357      0.00000
      6       8.4752      0.00000
      7       8.4752      0.00000
      8       9.7684      0.00000

 k-point  33 :       0.0897    0.0897    0.0897
  band No.  band energies     occupation 
      1      -6.0931      2.00000
      2       4.6546      2.00000
      3       5.4595      2.00000
      4       5.4595      2.00000
      5       8.1699      0.00000
      6       8.4127      0.00000
      7       8.4127      0.00000
      8       9.5587      0.00000

 k-point  34 :       0.0769    0.0769    0.0769
  band No.  band energies     occupation 
      1      -6.1205      2.00000
      2       4.8667      2.00000
      3       5.4985      2.00000
      4       5.4985      2.00000
      5       8.1970      0.00000
      6       8.3551      0.00000
      7       8.3551      0.00000
      8       9.3616      0.00000

 k-point  35 :       0.0641    0.0641    0.0641
  band No.  band energies     occupation 
      1      -6.1438      2.00000
      2       5.0651      2.00000
      3       5.5333      2.00000
      4       5.5333      2.00000
      5       8.2149      0.00000
      6       8.3036      0.00000
      7       8.3036      0.00000
      8       9.1825      0.00000

 k-point  36 :       0.0513    0.0513    0.0513
  band No.  band energies     occupation 
      1      -6.1628      2.00000
      2       5.2444      2.00000
      3       5.5632      2.00000
      4       5.5632      2.00000
      5       8.2214      0.00000
      6       8.2595      0.00000
      7       8.2595      0.00000
      8       9.0281      0.00000

 k-point  37 :       0.0385    0.0385    0.0385
  band No.  band energies     occupation 
      1      -6.1776      2.00000
      2       5.3978      2.00000
      3       5.5874      2.00000
      4       5.5874      2.00000
      5       8.2155      0.00000
      6       8.2240      0.00000
      7       8.2240      0.00000
      8       8.9057      0.00000

 k-point  38 :       0.0256    0.0256    0.0256
  band No.  band energies     occupation 
      1      -6.1882      2.00000
      2       5.5171      2.00000
      3       5.6052      2.00000
      4       5.6052      2.00000
      5       8.1978      0.00000
      6       8.1978      0.00000
      7       8.2000      0.00000
      8       8.8203      0.00000

 k-point  39 :       0.0128    0.0128    0.0128
  band No.  band energies     occupation 
      1      -6.1946      2.00000
      2       5.5935      2.00000
      3       5.6162      2.00000
      4       5.6162      2.00000
      5       8.1818      0.00000
      6       8.1818      0.00000
      7       8.1835      0.00000
      8       8.7716      0.00000

 k-point  40 :       0.0000    0.0000    0.0000
  band No.  band energies     occupation 
      1      -6.1967      2.00000
      2       5.6198      2.00000
      3       5.6198      2.00000
      4       5.6198      2.00000
      5       8.1765      0.00000
      6       8.1765      0.00000
      7       8.1765      0.00000
      8       8.7561      0.00000

 k-point  41 :       0.0000    0.0000    0.0000
  band No.  band energies     occupation 
      1      -6.1967      2.00000
      2       5.6198      2.00000
      3       5.6198      2.00000
      4       5.6198      2.00000
      5       8.1765      0.00000
      6       8.1765      0.00000
      7       8.1765      0.00000
      8       8.7561      0.00000

 k-point  42 :       0.0000    0.0128    0.0128
  band No.  band energies     occupation 
      1      -6.1939      2.00000
      2       5.5992      2.00000
      3       5.6077      2.00000
      4       5.6077      2.00000
      5       8.1694      0.00000
      6       8.1921      0.00000
      7       8.1921      0.00000
      8       8.7763      0.00000

 k-point  43 :       0.0000    0.0256    0.0256
  band No.  band energies     occupation 
      1      -6.1854      2.00000
      2       5.5388      2.00000
      3       5.5720      2.00000
      4       5.5720      2.00000
      5       8.1484      0.00000
      6       8.2383      0.00000
      7       8.2383      0.00000
      8       8.8354      0.00000

 k-point  44 :       0.0000    0.0385    0.0385
  band No.  band energies     occupation 
      1      -6.1713      2.00000
      2       5.4431      2.00000
      3       5.5152      2.00000
      4       5.5152      2.00000
      5       8.1142      0.00000
      6       8.3124      0.00000
      7       8.3124      0.00000
      8       8.9283      0.00000

 k-point  45 :       0.0000    0.0513    0.0513
  band No.  band energies     occupation 
      1      -6.1515      2.00000
      2       5.3176      2.00000
      3       5.4409      2.00000
      4       5.4409      2.00000
      5       8.0678      0.00000
      6       8.4110      0.00000
      7       8.4110      0.00000
      8       9.0482      0.00000

 k-point  46 :       0.0000    0.0641    0.0641
  band No.  band energies     occupation 
      1      -6.1260      2.00000
      2       5.1683      2.00000
      3       5.3526      2.00000
      4       5.3526      2.00000
      5       8.0105      0.00000
      6       8.5306      0.00000
      7       8.5306      0.00000
      8       9.1875      0.00000

 k-point  47 :       0.0000    0.0769    0.0769
  band No.  band energies     occupation 
      1      -6.0950      2.00000
      2       5.0004      2.00000
      3       5.2537      2.00000
      4       5.2537      2.00000
      5       7.9438      0.00000
      6       8.6677      0.00000
      7       8.6677      0.00000
      8       9.3382      0.00000

 k-point  48 :       0.0000    0.0897    0.0897
  band No.  band energies     occupation 
      1      -6.0583      2.00000
      2       4.8182      2.00000
      3       5.1471      2.00000
      4       5.1471      2.00000
      5       7.8691      0.00000
      6       8.8192      0.00000
      7       8.8192      0.00000
      8       9.4919      0.00000

 k-point  49 :       0.0000    0.1026    0.1026
  band No.  band energies     occupation 
      1      -6.0160      2.00000
      2       4.6250      2.00000
      3       5.0354      2.00000
      4       5.0354      2.00000
      5       7.7881      0.00000
      6       8.9827      0.00000
      7       8.9827      0.00000
      8       9.6387      0.00000

 k-point  50 :       0.0000    0.1154    0.1154
  band No.  band energies     occupation 
      1      -5.9682      2.00000
      2       4.4234      2.00000
      3       4.9204      2.00000
      4       4.9204      2.00000
      5       7.7021      0.00000
      6       9.1562      0.00000
      7       9.1562      0.00000
      8       9.7668      0.00000

 k-point  51 :       0.0000    0.1282    0.1282
  band No.  band energies     occupation 
      1      -5.9147      2.00000
      2       4.2154      2.00000
      3       4.8036      2.00000
      4       4.8036      2.00000
      5       7.6125      0.00000
      6       9.3380      0.00000
      7       9.3380      0.00000
      8       9.8618      0.00000

 k-point  52 :       0.0000    0.1410    0.1410
  band No.  band energies     occupation 
      1      -5.8557      2.00000
      2       4.0024      2.00000
      3       4.6865      2.00000
      4       4.6865      2.00000
      5       7.5206      0.00000
      6       9.5268      0.00000
      7       9.5268      0.00000
      8       9.9091      0.00000

 k-point  53 :       0.0000    0.1538    0.1538
  band No.  band energies     occupation 
      1      -5.7912      2.00000
      2       3.7856      2.00000
      3       4.5698      2.00000
      4       4.5698      2.00000
      5       7.4274      0.00000
      6       9.7218      0.00000
      7       9.7218      0.00000
      8       9.8988      0.00000

 k-point  54 :       0.0000    0.1667    0.1667
  band No.  band energies     occupation 
      1      -5.7211      2.00000
      2       3.5659      2.00000
      3       4.4545      2.00000
      4       4.4545      2.00000
      5       7.3340      0.00000
      6       9.8320      0.00000
      7       9.9219      0.00000
      8       9.9219      0.00000

 k-point  55 :       0.0000    0.1795    0.1795
  band No.  band energies     occupation 
      1      -5.6456      2.00000
      2       3.3439      2.00000
      3       4.3411      2.00000
      4       4.3411      2.00000
      5       7.2412      0.00000
      6       9.7186      0.00000
      7      10.1264      0.00000
      8      10.1264      0.00000

 k-point  56 :       0.0000    0.1923    0.1923
  band No.  band energies     occupation 
      1      -5.5647      2.00000
      2       3.1202      2.00000
      3       4.2301      2.00000
      4       4.2301      2.00000
      5       7.1497      0.00000
      6       9.5721      0.00000
      7      10.3348      0.00000
      8      10.3348      0.00000

 k-point  57 :       0.0000    0.2051    0.2051
  band No.  band energies     occupation 
      1      -5.4783      2.00000
      2       2.8951      2.00000
      3       4.1220      2.00000
      4       4.1220      2.00000
      5       7.0602      0.00000
      6       9.4043      0.00000
      7      10.5467      0.00000
      8      10.5467      0.00000

 k-point  58 :       0.0000    0.2179    0.2179
  band No.  band energies     occupation 
      1      -5.3866      2.00000
      2       2.6691      2.00000
      3       4.0171      2.00000
      4       4.0171      2.00000
      5       6.9734      0.00000
      6       9.2242      0.00000
      7      10.7619      0.00000
      8      10.7619      0.00000

 k-point  59 :       0.0000    0.2308    0.2308
  band No.  band energies     occupation 
      1      -5.2895      2.00000
      2       2.4423      2.00000
      3       3.9156      2.00000
      4       3.9156      2.00000
      5       6.8897      0.00000
      6       9.0379      0.00000
      7      10.9796      0.00000
      8      10.9796      0.00000

 k-point  60 :       0.0000    0.2436    0.2436
  band No.  band energies     occupation 
      1      -5.1871      2.00000
      2       2.2152      2.00000
      3       3.8179      2.00000
      4       3.8179      2.00000
      5       6.8096      0.00000
      6       8.8497      0.00000
      7      11.1997      0.00000
      8      11.1997      0.00000

 k-point  61 :       0.0000    0.2564    0.2564
  band No.  band energies     occupation 
      1      -5.0795      2.00000
      2       1.9877      2.00000
      3       3.7241      2.00000
      4       3.7241      2.00000
      5       6.7335      0.00000
      6       8.6623      0.00000
      7      11.4221      0.00000
      8      11.4221      0.00000

 k-point  62 :       0.0000    0.2692    0.2692
  band No.  band energies     occupation 
      1      -4.9666      2.00000
      2       1.7603      2.00000
      3       3.6344      2.00000
      4       3.6344      2.00000
      5       6.6617      0.00000
      6       8.4780      0.00000
      7      11.6465      0.00000
      8      11.6465      0.00000

 k-point  63 :       0.0000    0.2821    0.2821
  band No.  band energies     occupation 
      1      -4.8487      2.00000
      2       1.5331      2.00000
      3       3.5490      2.00000
      4       3.5490      2.00000
      5       6.5945      0.00000
      6       8.2982      0.00000
      7      11.8727      0.00000
      8      11.8727      0.00000

 k-point  64 :       0.0000    0.2949    0.2949
  band No.  band energies     occupation 
      1      -4.7256      2.00000
      2       1.3061      2.00000
      3       3.4679      2.00000
      4       3.4679      2.00000
      5       6.5323      0.00000
      6       8.1239      0.00000
      7      12.1007      0.00000
      8      12.1007      0.00000

 k-point  65 :       0.0000    0.3077    0.3077
  band No.  band energies     occupation 
      1      -4.5975      2.00000
      2       1.0798      2.00000
      3       3.3913      2.00000
      4       3.3913      2.00000
      5       6.4753      0.00000
      6       7.9559      0.00000
      7      12.3303      0.00000
      8      12.3303      0.00000

 k-point  66 :       0.0000    0.3205    0.3205
  band No.  band energies     occupation 
      1      -4.4644      2.00000
      2       0.8541      2.00000
      3       3.3194      2.00000
      4       3.3194      2.00000
      5       6.4237      0.00000
      6       7.7949      0.00000
      7      12.5615      0.00000
      8      12.5616      0.00000

 k-point  67 :       0.0000    0.3333    0.3333
  band No.  band energies     occupation 
      1      -4.3265      2.00000
      2       0.6293      2.00000
      3       3.2520      2.00000
      4       3.2520      2.00000
      5       6.3775      0.00000
      6       7.6408      0.00000
      7      12.7940      0.00000
      8      12.7940      0.00000

 k-point  68 :       0.0000    0.3462    0.3462
  band No.  band energies     occupation 
      1      -4.1837      2.00000
      2       0.4056      2.00000
      3       3.1894      2.00000
      4       3.1894      2.00000
      5       6.3375      0.00000
      6       7.4949      0.00000
      7      13.0280      0.00000
      8      13.0280      0.00000

 k-point  69 :       0.0000    0.3590    0.3590
  band No.  band energies     occupation 
      1      -4.0361      2.00000
      2       0.1832      2.00000
      3       3.1316      2.00000
      4       3.1316      2.00000
      5       6.3034      0.00000
      6       7.3567      0.00000
      7      13.2632      0.00000
      8      13.2632      0.00000

 k-point  70 :       0.0000    0.3718    0.3718
  band No.  band energies     occupation 
      1      -3.8839      2.00000
      2      -0.0378      2.00000
      3       3.0787      2.00000
      4       3.0787      2.00000
      5       6.2756      0.00000
      6       7.2265      0.00000
      7      13.4995      0.00000
      8      13.4995      0.00000

 k-point  71 :       0.0000    0.3846    0.3846
  band No.  band energies     occupation 
      1      -3.7271      2.00000
      2      -0.2571      2.00000
      3       3.0307      2.00000
      4       3.0307      2.00000
      5       6.2541      0.00000
      6       7.1043      0.00000
      7      13.7366      0.00000
      8      13.7366      0.00000

 k-point  72 :       0.0000    0.3974    0.3974
  band No.  band energies     occupation 
      1      -3.5659      2.00000
      2      -0.4746      2.00000
      3       2.9876      2.00000
      4       2.9876      2.00000
      5       6.2392      0.00000
      6       6.9904      0.00000
      7      13.9743      0.00000
      8      13.9743      0.00000

 k-point  73 :       0.0000    0.4103    0.4103
  band No.  band energies     occupation 
      1      -3.4002      2.00000
      2      -0.6901      2.00000
      3       2.9496      2.00000
      4       2.9496      2.00000
      5       6.2309      0.00000
      6       6.8847      0.00000
      7      14.2122      0.00000
      8      14.2122      0.00000

 k-point  74 :       0.0000    0.4231    0.4231
  band No.  band energies     occupation 
      1      -3.2303      2.00000
      2      -0.9034      2.00000
      3       2.9165      2.00000
      4       2.9165      2.00000
      5       6.2294      0.00000
      6       6.7872      0.00000
      7      14.4494      0.00000
      8      14.4494      0.00000

 k-point  75 :       0.0000    0.4359    0.4359
  band No.  band energies     occupation 
      1      -3.0561      2.00000
      2      -1.1144      2.00000
      3       2.8885      2.00000
      4       2.8885      2.00000
      5       6.2349      0.00000
      6       6.6978      0.00000
      7      14.6846      0.00000
      8      14.6846      0.00000

 k-point  76 :       0.0000    0.4487    0.4487
  band No.  band energies     occupation 
      1      -2.8780      2.00000
      2      -1.3228      2.00000
      3       2.8656      2.00000
      4       2.8656      2.00000
      5       6.2474      0.00000
      6       6.6165      0.00000
      7      14.9155      0.00000
      8      14.9155      0.00000

 k-point  77 :       0.0000    0.4615    0.4615
  band No.  band energies     occupation 
      1      -2.6959      2.00000
      2      -1.5284      2.00000
      3       2.8477      2.00000
      4       2.8477      2.00000
      5       6.2672      0.00000
      6       6.5432      0.00000
      7      15.1370      0.00000
      8      15.1370      0.00000

 k-point  78 :       0.0000    0.4744    0.4744
  band No.  band energies     occupation 
      1      -2.5100      2.00000
      2      -1.7312      2.00000
      3       2.8349      2.00000
      4       2.8349      2.00000
      5       6.2942      0.00000
      6       6.4779      0.00000
      7      15.3384      0.00000
      8      15.3388      0.00000

 k-point  79 :       0.0000    0.4872    0.4872
  band No.  band energies     occupation 
      1      -2.3204      2.00000
      2      -1.9309      2.00000
      3       2.8273      2.00000
      4       2.8273      2.00000
      5       6.3287      0.00000
      6       6.4204      0.00000
      7      15.4951      0.00000
      8      15.4981      0.00000

 k-point  80 :       0.0000    0.5000    0.5000
  band No.  band energies     occupation 
      1      -2.1273      2.00000
      2      -2.1273      2.00000
      3       2.8247      2.00000
      4       2.8247      2.00000
      5       6.3707      0.00000
      6       6.3707      0.00000
      7      15.5592      0.00000
      8      15.5626      0.00000

 k-point  81 :       0.0000    0.5000    0.5000
  band No.  band energies     occupation 
      1      -2.1273      2.00000
      2      -2.1273      2.00000
      3       2.8247      2.00000
      4       2.8247      2.00000
      5       6.3707      0.00000
      6       6.3707      0.00000
      7      15.5586      0.00000
      8      15.5609      0.00000

 k-point  82 :       0.0064    0.5032    0.5032
  band No.  band energies     occupation 
      1      -2.1275      2.00000
      2      -2.1269      2.00000
      3       2.8223      2.00000
      4       2.8250      2.00000
      5       6.3711      0.00000
      6       6.3743      0.00000
      7      15.5548      0.00000
      8      15.5575      0.00000

 k-point  83 :       0.0128    0.5064    0.5064
  band No.  band energies     occupation 
      1      -2.1280      2.00000
      2      -2.1258      2.00000
      3       2.8151      2.00000
      4       2.8258      2.00000
      5       6.3721      0.00000
      6       6.3851      0.00000
      7      15.5432      0.00000
      8      15.5532      0.00000

 k-point  84 :       0.0192    0.5096    0.5096
  band No.  band energies     occupation 
      1      -2.1287      2.00000
      2      -2.1239      2.00000
      3       2.8032      2.00000
      4       2.8272      2.00000
      5       6.3737      0.00000
      6       6.4029      0.00000
      7      15.5241      0.00000
      8      15.5391      0.00000

 k-point  85 :       0.0256    0.5128    0.5128
  band No.  band energies     occupation 
[...]
  band No.  band energies     occupation 
      1      -3.0830      2.00000
      2      -1.0138      2.00000
      3       1.3207      2.00000
      4       3.6033      2.00000
      5       7.2683      0.00000
      6      11.6146      0.00000
      7      11.8865      0.00000
      8      12.5069      0.00000

 k-point 127 :       0.3173    0.6346    0.3173
  band No.  band energies     occupation 
      1      -3.2135      2.00000
      2      -0.8875      2.00000
      3       1.3535      2.00000
      4       3.6854      2.00000
      5       7.3623      0.00000
      6      11.6774      0.00000
      7      11.7959      0.00000
      8      12.5280      0.00000

 k-point 128 :       0.3077    0.6154    0.3077
  band No.  band energies     occupation 
      1      -3.3486      2.00000
      2      -0.7546      2.00000
      3       1.4014      2.00000
      4       3.7703      2.00000
      5       7.4591      0.00000
      6      11.4737      0.00000
      7      11.7440      0.00000
      8      12.4730      0.00000

 k-point 129 :       0.2981    0.5962    0.2981
  band No.  band energies     occupation 
      1      -3.4870      2.00000
      2      -0.6151      2.00000
      3       1.4635      2.00000
      4       3.8576      2.00000
      5       7.5580      0.00000
      6      11.2754      0.00000
      7      11.5928      0.00000
      8      12.3176      0.00000

 k-point 130 :       0.2885    0.5769    0.2885
  band No.  band energies     occupation 
      1      -3.6277      2.00000
      2      -0.4690      2.00000
      3       1.5385      2.00000
      4       3.9470      2.00000
      5       7.6585      0.00000
      6      11.0826      0.00000
      7      11.4167      0.00000
      8      12.1695      0.00000

 k-point 131 :       0.2788    0.5577    0.2788
  band No.  band energies     occupation 
      1      -3.7694      2.00000
      2      -0.3164      2.00000
      3       1.6255      2.00000
      4       4.0381      2.00000
      5       7.7596      0.00000
      6      10.8954      0.00000
      7      11.2353      0.00000
      8      12.0349      0.00000

 k-point 132 :       0.2692    0.5385    0.2692
  band No.  band energies     occupation 
      1      -3.9113      2.00000
      2      -0.1574      2.00000
      3       1.7235      2.00000
      4       4.1304      2.00000
      5       7.8606      0.00000
      6      10.7141      0.00000
      7      11.0545      0.00000
      8      11.8970      0.00000

 k-point 133 :       0.2596    0.5192    0.2596
  band No.  band energies     occupation 
      1      -4.0524      2.00000
      2       0.0081      2.00000
      3       1.8318      2.00000
      4       4.2236      2.00000
      5       7.9603      0.00000
      6      10.5386      0.00000
      7      10.8772      0.00000
      8      11.7763      0.00000

 k-point 134 :       0.2500    0.5000    0.2500
  band No.  band energies     occupation 
      1      -4.1921      2.00000
      2       0.1799      2.00000
      3       1.9494      2.00000
      4       4.3170      2.00000
      5       8.0577      0.00000
      6      10.3690      0.00000
      7      10.7041      0.00000
      8      11.6625      0.00000

 k-point 135 :       0.2404    0.4808    0.2404
  band No.  band energies     occupation 
      1      -4.3297      2.00000
      2       0.3580      2.00000
      3       2.0756      2.00000
      4       4.4104      2.00000
      5       8.1514      0.00000
      6      10.2056      0.00000
      7      10.5362      0.00000
      8      11.5617      0.00000

 k-point 136 :       0.2308    0.4615    0.2308
  band No.  band energies     occupation 
      1      -4.4646      2.00000
      2       0.5423      2.00000
      3       2.2098      2.00000
      4       4.5031      2.00000
      5       8.2399      0.00000
      6      10.0481      0.00000
      7      10.3735      0.00000
      8      11.4729      0.00000

 k-point 137 :       0.2212    0.4423    0.2212
  band No.  band energies     occupation 
      1      -4.5963      2.00000
      2       0.7327      2.00000
      3       2.3513      2.00000
      4       4.5945      2.00000
      5       8.3217      0.00000
      6       9.8968      0.00000
      7      10.2162      0.00000
      8      11.3971      0.00000

 k-point 138 :       0.2115    0.4231    0.2115
  band No.  band energies     occupation 
      1      -4.7244      2.00000
      2       0.9292      2.00000
      3       2.4995      2.00000
      4       4.6841      2.00000
      5       8.3954      0.00000
      6       9.7516      0.00000
      7      10.0646      0.00000
      8      11.3346      0.00000

 k-point 139 :       0.2019    0.4038    0.2019
  band No.  band energies     occupation 
      1      -4.8485      2.00000
      2       1.1316      2.00000
      3       2.6538      2.00000
      4       4.7714      2.00000
      5       8.4594      0.00000
      6       9.6127      0.00000
      7       9.9186      0.00000
      8      11.2859      0.00000

 k-point 140 :       0.1923    0.3846    0.1923
  band No.  band energies     occupation 
      1      -4.9683      2.00000
      2       1.3399      2.00000
      3       2.8136      2.00000
      4       4.8558      2.00000
      5       8.5129      0.00000
      6       9.4799      0.00000
      7       9.7784      0.00000
      8      11.2502      0.00000

 k-point 141 :       0.1827    0.3654    0.1827
  band No.  band energies     occupation 
      1      -5.0835      2.00000
      2       1.5538      2.00000
      3       2.9783      2.00000
      4       4.9368      2.00000
      5       8.5548      0.00000
      6       9.3536      0.00000
      7       9.6437      0.00000
      8      11.2261      0.00000

 k-point 142 :       0.1731    0.3462    0.1731
  band No.  band energies     occupation 
      1      -5.1938      2.00000
      2       1.7732      2.00000
      3       3.1472      2.00000
      4       5.0139      2.00000
      5       8.5852      0.00000
      6       9.2334      0.00000
      7       9.5146      0.00000
      8      11.2108      0.00000

 k-point 143 :       0.1635    0.3269    0.1635
  band No.  band energies     occupation 
      1      -5.2991      2.00000
      2       1.9980      2.00000
      3       3.3197      2.00000
      4       5.0868      2.00000
      5       8.6042      0.00000
      6       9.1198      0.00000
      7       9.3911      0.00000
      8      11.2003      0.00000

 k-point 144 :       0.1538    0.3077    0.1538
  band No.  band energies     occupation 
      1      -5.3991      2.00000
      2       2.2279      2.00000
      3       3.4950      2.00000
      4       5.1550      2.00000
      5       8.6128      0.00000
      6       9.0124      0.00000
      7       9.2731      0.00000
      8      11.1881      0.00000

 k-point 145 :       0.1442    0.2885    0.1442
  band No.  band energies     occupation 
      1      -5.4937      2.00000
      2       2.4626      2.00000
      3       3.6725      2.00000
      4       5.2184      2.00000
      5       8.6123      0.00000
      6       8.9115      0.00000
      7       9.1604      0.00000
      8      11.1662      0.00000

 k-point 146 :       0.1346    0.2692    0.1346
  band No.  band energies     occupation 
      1      -5.5827      2.00000
      2       2.7018      2.00000
      3       3.8511      2.00000
      4       5.2767      2.00000
      5       8.6039      0.00000
      6       8.8170      0.00000
      7       9.0531      0.00000
      8      11.1243      0.00000

 k-point 147 :       0.1250    0.2500    0.1250
  band No.  band energies     occupation 
      1      -5.6660      2.00000
      2       2.9451      2.00000
      3       4.0300      2.00000
      4       5.3299      2.00000
      5       8.5893      0.00000
      6       8.7290      0.00000
      7       8.9511      0.00000
      8      11.0516      0.00000

 k-point 148 :       0.1154    0.2308    0.1154
  band No.  band energies     occupation 
      1      -5.7436      2.00000
      2       3.1920      2.00000
      3       4.2081      2.00000
      4       5.3780      2.00000
      5       8.5699      0.00000
      6       8.6474      0.00000
      7       8.8542      0.00000
      8      10.9394      0.00000

 k-point 149 :       0.1058    0.2115    0.1058
  band No.  band energies     occupation 
      1      -5.8152      2.00000
      2       3.4419      2.00000
      3       4.3842      2.00000
      4       5.4210      2.00000
      5       8.5470      0.00000
      6       8.5723      0.00000
      7       8.7623      0.00000
      8      10.7839      0.00000

 k-point 150 :       0.0962    0.1923    0.0962
  band No.  band energies     occupation 
      1      -5.8809      2.00000
      2       3.6937      2.00000
      3       4.5567      2.00000
      4       5.4590      2.00000
      5       8.5037      0.00000
      6       8.5216      0.00000
      7       8.6756      0.00000
      8      10.5885      0.00000

 k-point 151 :       0.0865    0.1731    0.0865
  band No.  band energies     occupation 
      1      -5.9405      2.00000
      2       3.9465      2.00000
      3       4.7242      2.00000
      4       5.4923      2.00000
      5       8.4416      0.00000
      6       8.4945      0.00000
      7       8.5939      0.00000
      8      10.3621      0.00000

 k-point 152 :       0.0769    0.1538    0.0769
  band No.  band energies     occupation 
      1      -5.9940      2.00000
      2       4.1985      2.00000
      3       4.8847      2.00000
      4       5.5211      2.00000
      5       8.3860      0.00000
      6       8.4663      0.00000
      7       8.5175      0.00000
      8      10.1159      0.00000

 k-point 153 :       0.0673    0.1346    0.0673
  band No.  band energies     occupation 
      1      -6.0413      2.00000
      2       4.4477      2.00000
      3       5.0361      2.00000
      4       5.5457      2.00000
      5       8.3369      0.00000
      6       8.4368      0.00000
      7       8.4467      0.00000
      8       9.8610      0.00000

 k-point 154 :       0.0577    0.1154    0.0577
  band No.  band energies     occupation 
      1      -6.0824      2.00000
      2       4.6910      2.00000
      3       5.1760      2.00000
      4       5.5663      2.00000
      5       8.2944      0.00000
      6       8.3819      0.00000
      7       8.4057      0.00000
      8       9.6082      0.00000

 k-point 155 :       0.0481    0.0962    0.0481
  band No.  band energies     occupation 
      1      -6.1173      2.00000
      2       4.9240      2.00000
      3       5.3018      2.00000
      4       5.5832      2.00000
      5       8.2583      0.00000
      6       8.3239      0.00000
      7       8.3716      0.00000
      8       9.3684      0.00000

 k-point 156 :       0.0385    0.0769    0.0385
  band No.  band energies     occupation 
      1      -6.1459      2.00000
      2       5.1404      2.00000
      3       5.4106      2.00000
      4       5.5967      2.00000
      5       8.2289      0.00000
      6       8.2737      0.00000
      7       8.3323      0.00000
      8       9.1539      0.00000

 k-point 157 :       0.0288    0.0577    0.0288
  band No.  band energies     occupation 
      1      -6.1681      2.00000
      2       5.3311      2.00000
      3       5.4994      2.00000
      4       5.6070      2.00000
      5       8.2059      0.00000
      6       8.2326      0.00000
      7       8.2861      0.00000
      8       8.9780      0.00000

 k-point 158 :       0.0192    0.0385    0.0192
  band No.  band energies     occupation 
      1      -6.1840      2.00000
      2       5.4840      2.00000
      3       5.5654      2.00000
      4       5.6141      2.00000
      5       8.1896      0.00000
      6       8.2019      0.00000
      7       8.2357      0.00000
      8       8.8521      0.00000

 k-point 159 :       0.0096    0.0192    0.0096
  band No.  band energies     occupation 
      1      -6.1935      2.00000
      2       5.5845      2.00000
      3       5.6061      2.00000
      4       5.6184      2.00000
      5       8.1797      0.00000
      6       8.1829      0.00000
      7       8.1934      0.00000
      8       8.7794      0.00000

 k-point 160 :       0.0000    0.0000    0.0000
  band No.  band energies     occupation 
      1      -6.1967      2.00000
      2       5.6198      2.00000
      3       5.6198      2.00000
      4       5.6198      2.00000
      5       8.1765      0.00000
      6       8.1765      0.00000
      7       8.1765      0.00000
      8       8.7561      0.00000


--------------------------------------------------------------------------------------------------------


 soft charge-density along one line, spin component           1
         0         1         2         3         4         5         6         7         8         9
 total charge-density along one line
 
 pseudopotential strength for first ion, spin component:           1
 18.437  -0.001   0.000   0.000   0.000   0.000   0.000   0.000
 -0.001   0.006   0.000   0.000   0.000   0.000   0.000   0.000
  0.000   0.000   4.181   0.000   0.000  -0.004   0.000   0.000
  0.000   0.000   0.000   4.181   0.000   0.000  -0.004   0.000
  0.000   0.000   0.000   0.000   4.181   0.000   0.000  -0.004
  0.000   0.000  -0.004   0.000   0.000   0.005   0.000   0.000
  0.000   0.000   0.000  -0.004   0.000   0.000   0.005   0.000
  0.000   0.000   0.000   0.000  -0.004   0.000   0.000   0.005
 total augmentation occupancy for first ion, spin component:           1
  2.000   0.000   0.000   0.000   0.000   0.000   0.000   0.000
  0.000   0.000   0.000   0.000   0.000   0.000   0.000   0.000
  0.000   0.000   0.667   0.000   0.000   0.000   0.000   0.000
  0.000   0.000   0.000   0.667   0.000   0.000   0.000   0.000
  0.000   0.000   0.000   0.000   0.667   0.000   0.000   0.000
  0.000   0.000   0.000   0.000   0.000   0.000   0.000   0.000
  0.000   0.000   0.000   0.000   0.000   0.000   0.000   0.000
  0.000   0.000   0.000   0.000   0.000   0.000   0.000   0.000


------------------------ aborting loop because EDIFF is reached ----------------------------------------


 


 total charge     
 
# of ion     s       p       d       tot
----------------------------------------
  1        0.680   1.026   0.000   1.705
  2        0.680   1.026   0.000   1.705
------------------------------------------------
tot        1.359   2.052   0.000   3.411
 
    CHARGE:  cpu time    0.16: real time    0.16
    FORLOC:  cpu time    0.00: real time    0.00
    FORNL :  cpu time    0.09: real time    0.09
    STRESS:  cpu time    0.71: real time    0.71
    FORCOR:  cpu time    0.08: real time    0.08
    FORHAR:  cpu time    0.02: real time    0.02
    FORVDW:  cpu time    0.00: real time    0.00

  FORCE on cell =-STRESS in cart. coord.  units (eV):
  Direction    XX          YY          ZZ          XY          YZ          ZX
  --------------------------------------------------------------------------------------
  Alpha Z     3.29388     3.29388     3.29388
  Ewald     -75.65371   -75.65371   -75.65371     0.00000     0.00000     0.00000
  Hartree     5.89761     5.89761     5.89761     0.00000     0.00000     0.00000
  E(xc)     -25.32627   -25.32627   -25.32627     0.00000     0.00000     0.00000
  Local     -31.29930   -31.29931   -31.29931     0.00001     0.00000     0.00000
  n-local    76.77650    74.74168    78.08168    -1.27274    -2.48742    -1.54794
  augment   -11.05718   -11.05717   -11.05717    -0.00001     0.00000     0.00000
  Kinetic    61.44198    60.18969    62.97097    -1.11318    -3.10221    -1.22643
  Fock        0.00000     0.00000     0.00000     0.00000     0.00000     0.00000
  -------------------------------------------------------------------------------------
  Total       3.92252     3.92252     3.92252     0.00000     0.00000     0.00000
  in kB     153.73385   153.73385   153.73385     0.00000     0.00000     0.00000
  external pressure =      153.73 kB  Pullay stress =        0.00 kB


 VOLUME and BASIS-vectors are now :
 -----------------------------------------------------------------------------
  energy-cutoff  :      400.00
  volume of cell :       40.88
      direct lattice vectors                 reciprocal lattice vectors
     3.866699934  0.000000000  0.000000000     0.258618465 -0.149313440 -0.105580546
     1.933349967  3.348660372  0.000000000     0.000000000  0.298626880 -0.105580546
     1.933349967  1.116220124  3.157147276     0.000000000  0.000000000  0.316741638

  length of vectors
     3.866699934  3.866699934  3.866699934     0.316741638  0.316741638  0.316741638


 FORCES acting on ions
    electron-ion (+dipol)            ewald-force                    non-local-force                 convergence-correction
 -----------------------------------------------------------------------------------------------
   -.113E-07 -.708E-08 -.764E-08   0.164E-14 0.839E-09 -.153E-09   0.250E-15 0.382E-16 0.208E-16   -.291E-09 -.155E-09 -.122E-09
   0.113E-07 0.708E-08 0.764E-08   -.103E-14 -.839E-09 0.153E-09   -.232E-15 -.128E-15 0.416E-16   0.291E-09 0.155E-09 0.122E-09
 -----------------------------------------------------------------------------------------------
   -.247E-12 -.302E-13 -.131E-12   0.614E-15 0.307E-16 -.841E-16   0.173E-16 -.902E-16 0.625E-16   0.148E-14 0.125E-14 -.174E-14
 
 
 POSITION                                       TOTAL-FORCE (eV/Angst)
 -----------------------------------------------------------------------------------
      0.96667      0.55811      0.39464         0.000000      0.000000      0.000000
      6.76672      3.90677      2.76250         0.000000      0.000000      0.000000
 -----------------------------------------------------------------------------------
    total drift:                                0.000000      0.000000      0.000000


--------------------------------------------------------------------------------------------------------



  FREE ENERGIE OF THE ION-ELECTRON SYSTEM (eV)
  ---------------------------------------------------
  free  energy   TOTEN  =        -7.00685223 eV

  energy  without entropy=       -7.00685223  energy(sigma->0) =       -7.00685223
 


--------------------------------------------------------------------------------------------------------


    POTLOK:  cpu time    0.07: real time    0.07


--------------------------------------------------------------------------------------------------------


 writing wavefunctions
     LOOP+:  cpu time   22.91: real time   25.54
    4ORBIT:  cpu time    0.00: real time    0.00
 


 total charge     
 
# of ion     s       p       d       tot
----------------------------------------
  1        0.680   1.026   0.000   1.705
  2        0.680   1.026   0.000   1.705
------------------------------------------------
tot        1.359   2.052   0.000   3.411
 

 total amount of memory used by VASP on root node    46452. kBytes
========================================================================

   base      :      30000. kBytes
   nonl-proj :       7806. kBytes
   fftplans  :       1619. kBytes
   grid      :       3048. kBytes
   one-center:          6. kBytes
   wavefun   :       3973. kBytes
 
  
  
 General timing and accounting informations for this job:
 ========================================================
  
                  Total CPU time used (sec):       24.669
                            User time (sec):       24.029
                          System time (sec):        0.640
                         Elapsed time (sec):       28.625
  
                   Maximum memory used (kb):       53324.
                   Average memory used (kb):           0.
  
                          Minor page faults:         9624
                          Major page faults:           32
                 Voluntary context switches:          520
