PROCAR lm decomposed
# of k-points:  160         # of bands:   8         # of ions:   2

 k-point    1 :    0.50000000 0.50000000 0.50000000     weight = 0.00625000

band   1 # energy   -3.91737559 # occ.  2.00000000
 
ion      s     py     pz     px    dxy    dyz    dz2    dxz    dx2    tot
  1  0.224  0.003  0.001  0.009  0.000  0.000  0.000  0.000  0.000  0.237
  2  0.224  0.003  0.001  0.009  0.000  0.000  0.000  0.000  0.000  0.237
tot  0.447  0.006  0.003  0.018  0.000  0.000  0.000  0.000  0.000  0.474
 
band   2 # energy   -1.25019026 # occ.  2.00000000
 
ion      s     py     pz     px    dxy    dyz    dz2    dxz    dx2    tot
  1  0.100  0.020  0.010  0.061  0.000  0.000  0.000  0.000  0.000  0.192
  2  0.100  0.020  0.010  0.061  0.000  0.000  0.000  0.000  0.000  0.192
tot  0.199  0.041  0.020  0.123  0.000  0.000  0.000  0.000  0.000  0.384
 
band   3 # energy    4.44096456 # occ.  2.00000000
 
ion      s     py     pz     px    dxy    dyz    dz2    dxz    dx2    tot
  1  0.000  0.057  0.090  0.068  0.000  0.000  0.000  0.000  0.000  0.215
  2  0.000  0.057  0.090  0.068  0.000  0.000  0.000  0.000  0.000  0.215
tot  0.000  0.114  0.181  0.136  0.000  0.000  0.000  0.000  0.000  0.431
 
band   4 # energy    4.44096456 # occ.  2.00000000
 
ion      s     py     pz     px    dxy    dyz    dz2    dxz    dx2    tot
  1  0.000  0.110  0.101  0.004  0.000  0.000  0.000  0.000  0.000  0.215
  2  0.000  0.110  0.101  0.004  0.000  0.000  0.000  0.000  0.000  0.215
tot  0.000  0.221  0.202  0.008  0.000  0.000  0.000  0.000  0.000  0.431
 
band   5 # energy    7.08724587 # occ.  0.00000000
 
ion      s     py     pz     px    dxy    dyz    dz2    dxz    dx2    tot
  1  0.185  0.005  0.002  0.014  0.000  0.000  0.000  0.000  0.000  0.206
  2  0.185  0.005  0.002  0.014  0.000  0.000  0.000  0.000  0.000  0.206
tot  0.370  0.009  0.005  0.028  0.000  0.000  0.000  0.000  0.000  0.411
 
band   6 # energy    8.96883265 # occ.  0.00000000
 
ion      s     py     pz     px    dxy    dyz    dz2    dxz    dx2    tot
  1  0.000  0.059  0.031  0.005  0.000  0.000  0.000  0.000  0.000  0.095
  2  0.000  0.059  0.031  0.005  0.000  0.000  0.000  0.000  0.000  0.095
tot  0.000  0.119  0.062  0.010  0.000  0.000  0.000  0.000  0.000  0.190
 
band   7 # energy    8.96883265 # occ.  0.00000000
 
ion      s     py     pz     px    dxy    dyz    dz2    dxz    dx2    tot
  1  0.000  0.015  0.054  0.027  0.000  0.000  0.000  0.000  0.000  0.095
  2  0.000  0.015  0.054  0.027  0.000  0.000  0.000  0.000  0.000  0.095
tot  0.000  0.029  0.107  0.054  0.000  0.000  0.000  0.000  0.000  0.190
 
band   8 # energy   13.32228223 # occ.  0.00000000
 
ion      s     py     pz     px    dxy    dyz    dz2    dxz    dx2    tot
  1  0.005  0.012  0.006  0.036  0.000  0.000  0.000  0.000  0.000  0.060
  2  0.005  0.012  0.006  0.036  0.000  0.000  0.000  0.000  0.000  0.060
tot  0.011  0.024  0.012  0.072  0.000  0.000  0.000  0.000  0.000  0.120
 

 k-point    2 :    0.48717949 0.48717949 0.48717949     weight = 0.00625000

band   1 # energy   -3.92650146 # occ.  2.00000000
 
ion      s     py     pz     px    dxy    dyz    dz2    dxz    dx2    tot
  1  0.223  0.003  0.001  0.009  0.000  0.000  0.000  0.000  0.000  0.237
  2  0.223  0.003  0.001  0.009  0.000  0.000  0.000  0.000  0.000  0.237
tot  0.447  0.006  0.003  0.018  0.000  0.000  0.000  0.000  0.000  0.473
 
band   2 # energy   -1.23707181 # occ.  2.00000000
 
ion      s     py     pz     px    dxy    dyz    dz2    dxz    dx2    tot
  1  0.100  0.020  0.010  0.061  0.000  0.000  0.000  0.000  0.000  0.192
  2  0.100  0.020  0.010  0.061  0.000  0.000  0.000  0.000  0.000  0.192
tot  0.200  0.041  0.020  0.123  0.000  0.000  0.000  0.000  0.000  0.384
 
band   3 # energy    4.44213218 # occ.  2.00000000
 
ion      s     py     pz     px    dxy    dyz    dz2    dxz    dx2    tot
  1  0.000  0.057  0.090  0.068  0.000  0.000  0.000  0.000  0.000  0.215
  2  0.000  0.057  0.090  0.068  0.000  0.000  0.000  0.000  0.000  0.215
tot  0.000  0.114  0.181  0.136  0.000  0.000  0.000  0.000  0.000  0.431
 
band   4 # energy    4.44213218 # occ.  2.00000000
 
ion      s     py     pz     px    dxy    dyz    dz2    dxz    dx2    tot
  1  0.000  0.110  0.101  0.004  0.000  0.000  0.000  0.000  0.000  0.215
  2  0.000  0.110  0.101  0.004  0.000  0.000  0.000  0.000  0.000  0.215
tot  0.000  0.221  0.202  0.008  0.000  0.000  0.000  0.000  0.000  0.431
 
band   5 # energy    7.08860664 # occ.  0.00000000
 
ion      s     py     pz     px    dxy    dyz    dz2    dxz    dx2    tot
  1  0.185  0.005  0.002  0.014  0.000  0.000  0.000  0.000  0.000  0.206
  2  0.185  0.005  0.002  0.014  0.000  0.000  0.000  0.000  0.000  0.206
tot  0.370  0.009  0.005  0.028  0.000  0.000  0.000  0.000  0.000  0.411
 
band   6 # energy    8.97013352 # occ.  0.00000000
 
ion      s     py     pz     px    dxy    dyz    dz2    dxz    dx2    tot
  1  0.000  0.070  0.015  0.010  0.000  0.000  0.000  0.000  0.000  0.095
  2  0.000  0.070  0.015  0.010  0.000  0.000  0.000  0.000  0.000  0.095
tot  0.000  0.139  0.030  0.021  0.000  0.000  0.000  0.000  0.000  0.190
 
band   7 # energy    8.97013352 # occ.  0.00000000
 
ion      s     py     pz     px    dxy    dyz    dz2    dxz    dx2    tot
  1  0.000  0.004  0.069  0.021  0.000  0.000  0.000  0.000  0.000  0.095
  2  0.000  0.004  0.069  0.021  0.000  0.000  0.000  0.000  0.000  0.095
tot  0.000  0.009  0.139  0.043  0.000  0.000  0.000  0.000  0.000  0.190
 
band   8 # energy   13.32428564 # occ.  0.00000000
 
ion      s     py     pz     px    dxy    dyz    dz2    dxz    dx2    tot
  1  0.005  0.012  0.006  0.036  0.000  0.000  0.000  0.000  0.000  0.060
  2  0.005  0.012  0.006  0.036  0.000  0.000  0.000  0.000  0.000  0.060
tot  0.011  0.024  0.012  0.073  0.000  0.000  0.000  0.000  0.000  0.120
 

 k-point    3 :    0.47435897 0.47435897 0.47435897     weight = 0.00625000

band   1 # energy   -3.95331680 # occ.  2.00000000
 
ion      s     py     pz     px    dxy    dyz    dz2    dxz    dx2    tot
  1  0.222  0.003  0.002  0.009  0.000  0.000  0.000  0.000  0.000  0.236
  2  0.222  0.003  0.002  0.009  0.000  0.000  0.000  0.000  0.000  0.236
tot  0.445  0.006  0.003  0.018  0.000  0.000  0.000  0.000  0.000  0.472
 
band   2 # energy   -1.19825607 # occ.  2.00000000
 
ion      s     py     pz     px    dxy    dyz    dz2    dxz    dx2    tot
  1  0.101  0.020  0.010  0.061  0.000  0.000  0.000  0.000  0.000  0.193
  2  0.101  0.020  0.010  0.061  0.000  0.000  0.000  0.000  0.000  0.193
tot  0.201  0.041  0.020  0.123  0.000  0.000  0.000  0.000  0.000  0.385
 
band   3 # energy    4.44563514 # occ.  2.00000000
 
ion      s     py     pz     px    dxy    dyz    dz2    dxz    dx2    tot
  1  0.000  0.058  0.090  0.068  0.000  0.000  0.000  0.000  0.000  0.215
  2  0.000  0.058  0.090  0.068  0.000  0.000  0.000  0.000  0.000  0.215
tot  0.000  0.116  0.179  0.136  0.000  0.000  0.000  0.000  0.000  0.431
 
band   4 # energy    4.44563514 # occ.  2.00000000
 
ion      s     py     pz     px    dxy    dyz    dz2    dxz    dx2    tot
  1  0.000  0.110  0.102  0.004  0.000  0.000  0.000  0.000  0.000  0.215
  2  0.000  0.110  0.102  0.004  0.000  0.000  0.000  0.000  0.000  0.215
tot  0.000  0.219  0.204  0.007  0.000  0.000  0.000  0.000  0.000  0.431
 
band   5 # energy    7.09268723 # occ.  0.00000000
 
ion      s     py     pz     px    dxy    dyz    dz2    dxz    dx2    tot
  1  0.185  0.005  0.002  0.014  0.000  0.000  0.000  0.000  0.000  0.206
  2  0.185  0.005  0.002  0.014  0.000  0.000  0.000  0.000  0.000  0.206
tot  0.369  0.009  0.005  0.028  0.000  0.000  0.000  0.000  0.000  0.411
 
band   6 # energy    8.97401086 # occ.  0.00000000
 
ion      s     py     pz     px    dxy    dyz    dz2    dxz    dx2    tot
  1  0.000  0.040  0.055  0.001  0.000  0.000  0.000  0.000  0.000  0.096
  2  0.000  0.040  0.055  0.001  0.000  0.000  0.000  0.000  0.000  0.096
tot  0.000  0.081  0.109  0.001  0.000  0.000  0.000  0.000  0.000  0.191
 
band   7 # energy    8.97401087 # occ.  0.00000000
 
ion      s     py     pz     px    dxy    dyz    dz2    dxz    dx2    tot
  1  0.000  0.034  0.030  0.031  0.000  0.000  0.000  0.000  0.000  0.096
  2  0.000  0.034  0.030  0.031  0.000  0.000  0.000  0.000  0.000  0.096
tot  0.000  0.068  0.061  0.063  0.000  0.000  0.000  0.000  0.000  0.191
 
band   8 # energy   13.33024917 # occ.  0.00000000
 
ion      s     py     pz     px    dxy    dyz    dz2    dxz    dx2    tot
  1  0.005  0.012  0.006  0.037  0.000  0.000  0.000  0.000  0.000  0.061
  2  0.005  0.012  0.006  0.037  0.000  0.000  0.000  0.000  0.000  0.061
tot  0.011  0.025  0.012  0.074  0.000  0.000  0.000  0.000  0.000  0.121
 

 k-point    4 :    0.46153846 0.46153846 0.46153846     weight = 0.00625000

band   1 # energy   -3.99630321 # occ.  2.00000000
 
ion      s     py     pz     px    dxy    dyz    dz2    dxz    dx2    tot
  1  0.221  0.003  0.002  0.009  0.000  0.000  0.000  0.000  0.000  0.235
  2  0.221  0.003  0.002  0.009  0.000  0.000  0.000  0.000  0.000  0.235
tot  0.442  0.006  0.003  0.018  0.000  0.000  0.000  0.000  0.000  0.470
 
band   2 # energy   -1.13526012 # occ.  2.00000000
 
ion      s     py     pz     px    dxy    dyz    dz2    dxz    dx2    tot
  1  0.102  0.020  0.010  0.061  0.000  0.000  0.000  0.000  0.000  0.194
  2  0.102  0.020  0.010  0.061  0.000  0.000  0.000  0.000  0.000  0.194
tot  0.204  0.041  0.020  0.123  0.000  0.000  0.000  0.000  0.000  0.388
 
band   3 # energy    4.45147330 # occ.  2.00000000
 
ion      s     py     pz     px    dxy    dyz    dz2    dxz    dx2    tot
  1  0.000  0.057  0.090  0.068  0.000  0.000  0.000  0.000  0.000  0.215
  2  0.000  0.057  0.090  0.068  0.000  0.000  0.000  0.000  0.000  0.215
tot  0.000  0.114  0.180  0.136  0.000  0.000  0.000  0.000  0.000  0.431
 
band   4 # energy    4.45147330 # occ.  2.00000000
 
ion      s     py     pz     px    dxy    dyz    dz2    dxz    dx2    tot
  1  0.000  0.110  0.101  0.004  0.000  0.000  0.000  0.000  0.000  0.215
  2  0.000  0.110  0.101  0.004  0.000  0.000  0.000  0.000  0.000  0.215
tot  0.000  0.221  0.202  0.008  0.000  0.000  0.000  0.000  0.000  0.431
 
band   5 # energy    7.09951348 # occ.  0.00000000
 
ion      s     py     pz     px    dxy    dyz    dz2    dxz    dx2    tot
  1  0.184  0.005  0.002  0.014  0.000  0.000  0.000  0.000  0.000  0.206
  2  0.184  0.005  0.002  0.014  0.000  0.000  0.000  0.000  0.000  0.206
tot  0.368  0.010  0.005  0.029  0.000  0.000  0.000  0.000  0.000  0.411
 
band   6 # energy    8.98045159 # occ.  0.00000000
 
ion      s     py     pz     px    dxy    dyz    dz2    dxz    dx2    tot
  1  0.000  0.022  0.073  0.002  0.000  0.000  0.000  0.000  0.000  0.096
  2  0.000  0.022  0.073  0.002  0.000  0.000  0.000  0.000  0.000  0.096
tot  0.000  0.043  0.145  0.004  0.000  0.000  0.000  0.000  0.000  0.192
 
band   7 # energy    8.98045159 # occ.  0.00000000
 
ion      s     py     pz     px    dxy    dyz    dz2    dxz    dx2    tot
  1  0.000  0.053  0.013  0.030  0.000  0.000  0.000  0.000  0.000  0.096
  2  0.000  0.053  0.013  0.030  0.000  0.000  0.000  0.000  0.000  0.096
tot  0.000  0.106  0.026  0.060  0.000  0.000  0.000  0.000  0.000  0.192
 
band   8 # energy   13.34003011 # occ.  0.00000000
 
ion      s     py     pz     px    dxy    dyz    dz2    dxz    dx2    tot
  1  0.005  0.013  0.006  0.038  0.000  0.000  0.000  0.000  0.000  0.062
  2  0.005  0.013  0.006  0.038  0.000  0.000  0.000  0.000  0.000  0.062
tot  0.010  0.025  0.013  0.075  0.000  0.000  0.000  0.000  0.000  0.123
 

 k-point    5 :    0.44871795 0.44871795 0.44871795     weight = 0.00625000

band   1 # energy   -4.05329209 # occ.  2.00000000
 
ion      s     py     pz     px    dxy    dyz    dz2    dxz    dx2    tot
  1  0.220  0.003  0.002  0.009  0.000  0.000  0.000  0.000  0.000  0.234
  2  0.220  0.003  0.002  0.009  0.000  0.000  0.000  0.000  0.000  0.234
tot  0.439  0.006  0.003  0.019  0.000  0.000  0.000  0.000  0.000  0.467
 
band   2 # energy   -1.05027621 # occ.  2.00000000
 
ion      s     py     pz     px    dxy    dyz    dz2    dxz    dx2    tot
  1  0.103  0.020  0.010  0.061  0.000  0.000  0.000  0.000  0.000  0.195
  2  0.103  0.020  0.010  0.061  0.000  0.000  0.000  0.000  0.000  0.195
tot  0.206  0.041  0.020  0.123  0.000  0.000  0.000  0.000  0.000  0.390
 
band   3 # energy    4.45964302 # occ.  2.00000000
 
ion      s     py     pz     px    dxy    dyz    dz2    dxz    dx2    tot
  1  0.000  0.057  0.090  0.068  0.000  0.000  0.000  0.000  0.000  0.215
  2  0.000  0.057  0.090  0.068  0.000  0.000  0.000  0.000  0.000  0.215
tot  0.000  0.114  0.181  0.136  0.000  0.000  0.000  0.000  0.000  0.430
 
band   4 # energy    4.45964302 # occ.  2.00000000
 
ion      s     py     pz     px    dxy    dyz    dz2    dxz    dx2    tot
  1  0.000  0.110  0.101  0.004  0.000  0.000  0.000  0.000  0.000  0.215
  2  0.000  0.110  0.101  0.004  0.000  0.000  0.000  0.000  0.000  0.215
tot  0.000  0.221  0.202  0.008  0.000  0.000  0.000  0.000  0.000  0.430
 
band   5 # energy    7.10900873 # occ.  0.00000000
 
ion      s     py     pz     px    dxy    dyz    dz2    dxz    dx2    tot
  1  0.184  0.005  0.002  0.015  0.000  0.000  0.000  0.000  0.000  0.206
  2  0.184  0.005  0.002  0.015  0.000  0.000  0.000  0.000  0.000  0.206
tot  0.367  0.010  0.005  0.029  0.000  0.000  0.000  0.000  0.000  0.411
 
band   6 # energy    8.98919705 # occ.  0.00000000
 
ion      s     py     pz     px    dxy    dyz    dz2    dxz    dx2    tot
  1  0.000  0.068  0.020  0.009  0.000  0.000  0.000  0.000  0.000  0.097
  2  0.000  0.068  0.020  0.009  0.000  0.000  0.000  0.000  0.000  0.097
tot  0.000  0.137  0.040  0.017  0.000  0.000  0.000  0.000  0.000  0.194
 
band   7 # energy    8.98919705 # occ.  0.00000000
 
ion      s     py     pz     px    dxy    dyz    dz2    dxz    dx2    tot
  1  0.000  0.007  0.066  0.024  0.000  0.000  0.000  0.000  0.000  0.097
  2  0.000  0.007  0.066  0.024  0.000  0.000  0.000  0.000  0.000  0.097
tot  0.000  0.014  0.133  0.047  0.000  0.000  0.000  0.000  0.000  0.194
 
band   8 # energy   13.35328681 # occ.  0.00000000
 
ion      s     py     pz     px    dxy    dyz    dz2    dxz    dx2    tot
  1  0.005  0.013  0.006  0.039  0.000  0.000  0.000  0.000  0.000  0.063
  2  0.005  0.013  0.006  0.039  0.000  0.000  0.000  0.000  0.000  0.063
tot  0.010  0.026  0.013  0.077  0.000  0.000  0.000  0.000  0.000  0.126
 

 k-point    6 :    0.43589744 0.43589744 0.43589744     weight = 0.00625000

band   1 # energy   -4.12182198 # occ.  2.00000000
 
ion      s     py     pz     px    dxy    dyz    dz2    dxz    dx2    tot
  1  0.218  0.003  0.002  0.010  0.000  0.000  0.000  0.000  0.000  0.232
  2  0.218  0.003  0.002  0.010  0.000  0.000  0.000  0.000  0.000  0.232
tot  0.436  0.006  0.003  0.019  0.000  0.000  0.000  0.000  0.000  0.465
 
band   2 # energy   -0.94577706 # occ.  2.00000000
 
ion      s     py     pz     px    dxy    dyz    dz2    dxz    dx2    tot
  1  0.104  0.021  0.010  0.062  0.000  0.000  0.000  0.000  0.000  0.197
  2  0.104  0.021  0.010  0.062  0.000  0.000  0.000  0.000  0.000  0.197
tot  0.209  0.041  0.021  0.123  0.000  0.000  0.000  0.000  0.000  0.393
 
band   3 # energy    4.47014198 # occ.  2.00000000
 
ion      s     py     pz     px    dxy    dyz    dz2    dxz    dx2    tot
  1  0.000  0.057  0.090  0.068  0.000  0.000  0.000  0.000  0.000  0.215
  2  0.000  0.057  0.090  0.068  0.000  0.000  0.000  0.000  0.000  0.215
tot  0.000  0.114  0.180  0.136  0.000  0.000  0.000  0.000  0.000  0.430
 
band   4 # energy    4.47014198 # occ.  2.00000000
 
ion      s     py     pz     px    dxy    dyz    dz2    dxz    dx2    tot
  1  0.000  0.110  0.101  0.004  0.000  0.000  0.000  0.000  0.000  0.215
  2  0.000  0.110  0.101  0.004  0.000  0.000  0.000  0.000  0.000  0.215
tot  0.000  0.220  0.202  0.008  0.000  0.000  0.000  0.000  0.000  0.430
 
band   5 # energy    7.12121002 # occ.  0.00000000
 
ion      s     py     pz     px    dxy    dyz    dz2    dxz    dx2    tot
  1  0.183  0.005  0.003  0.015  0.000  0.000  0.000  0.000  0.000  0.206
  2  0.183  0.005  0.003  0.015  0.000  0.000  0.000  0.000  0.000  0.206
tot  0.366  0.010  0.005  0.030  0.000  0.000  0.000  0.000  0.000  0.411
 
band   6 # energy    9.00013094 # occ.  0.00000000
 
ion      s     py     pz     px    dxy    dyz    dz2    dxz    dx2    tot
  1  0.000  0.071  0.016  0.010  0.000  0.000  0.000  0.000  0.000  0.098
  2  0.000  0.071  0.016  0.010  0.000  0.000  0.000  0.000  0.000  0.098
tot  0.000  0.143  0.032  0.021  0.000  0.000  0.000  0.000  0.000  0.196
 
band   7 # energy    9.00013094 # occ.  0.00000000
 
ion      s     py     pz     px    dxy    dyz    dz2    dxz    dx2    tot
  1  0.000  0.005  0.071  0.022  0.000  0.000  0.000  0.000  0.000  0.098
  2  0.000  0.005  0.071  0.022  0.000  0.000  0.000  0.000  0.000  0.098
tot  0.000  0.010  0.142  0.044  0.000  0.000  0.000  0.000  0.000  0.196
 
band   8 # energy   13.36968108 # occ.  0.00000000
 
ion      s     py     pz     px    dxy    dyz    dz2    dxz    dx2    tot
  1  0.004  0.013  0.007  0.040  0.000  0.000  0.000  0.000  0.000  0.065
  2  0.004  0.013  0.007  0.040  0.000  0.000  0.000  0.000  0.000  0.065
tot  0.009  0.027  0.013  0.081  0.000  0.000  0.000  0.000  0.000  0.130
 

 k-point    7 :    0.42307692 0.42307692 0.42307692     weight = 0.00625000

band   1 # energy   -4.19945154 # occ.  2.00000000
 
ion      s     py     pz     px    dxy    dyz    dz2    dxz    dx2    tot
  1  0.216  0.003  0.002  0.010  0.000  0.000  0.000  0.000  0.000  0.231
  2  0.216  0.003  0.002  0.010  0.000  0.000  0.000  0.000  0.000  0.231
tot  0.433  0.006  0.003  0.019  0.000  0.000  0.000  0.000  0.000  0.462
 
band   2 # energy   -0.82423041 # occ.  2.00000000
 
ion      s     py     pz     px    dxy    dyz    dz2    dxz    dx2    tot
  1  0.105  0.021  0.010  0.062  0.000  0.000  0.000  0.000  0.000  0.198
  2  0.105  0.021  0.010  0.062  0.000  0.000  0.000  0.000  0.000  0.198
tot  0.211  0.041  0.021  0.124  0.000  0.000  0.000  0.000  0.000  0.396
 
band   3 # energy    4.48295379 # occ.  2.00000000
 
ion      s     py     pz     px    dxy    dyz    dz2    dxz    dx2    tot
  1  0.000  0.057  0.090  0.068  0.000  0.000  0.000  0.000  0.000  0.215
  2  0.000  0.057  0.090  0.068  0.000  0.000  0.000  0.000  0.000  0.215
tot  0.000  0.114  0.180  0.136  0.000  0.000  0.000  0.000  0.000  0.430
 
band   4 # energy    4.48295379 # occ.  2.00000000
 
ion      s     py     pz     px    dxy    dyz    dz2    dxz    dx2    tot
  1  0.000  0.110  0.101  0.004  0.000  0.000  0.000  0.000  0.000  0.215
  2  0.000  0.110  0.101  0.004  0.000  0.000  0.000  0.000  0.000  0.215
tot  0.000  0.220  0.202  0.008  0.000  0.000  0.000  0.000  0.000  0.430
 
band   5 # energy    7.13609454 # occ.  0.00000000
 
ion      s     py     pz     px    dxy    dyz    dz2    dxz    dx2    tot
  1  0.182  0.005  0.003  0.016  0.000  0.000  0.000  0.000  0.000  0.205
  2  0.182  0.005  0.003  0.016  0.000  0.000  0.000  0.000  0.000  0.205
tot  0.364  0.010  0.005  0.031  0.000  0.000  0.000  0.000  0.000  0.411
 
band   6 # energy    9.01300056 # occ.  0.00000000
 
ion      s     py     pz     px    dxy    dyz    dz2    dxz    dx2    tot
  1  0.000  0.070  0.019  0.009  0.000  0.000  0.000  0.000  0.000  0.099
  2  0.000  0.070  0.019  0.009  0.000  0.000  0.000  0.000  0.000  0.099
tot  0.000  0.141  0.039  0.019  0.000  0.000  0.000  0.000  0.000  0.198
 
band   7 # energy    9.01300056 # occ.  0.00000000
 
ion      s     py     pz     px    dxy    dyz    dz2    dxz    dx2    tot
  1  0.000  0.007  0.069  0.024  0.000  0.000  0.000  0.000  0.000  0.099
  2  0.000  0.007  0.069  0.024  0.000  0.000  0.000  0.000  0.000  0.099
tot  0.000  0.014  0.137  0.047  0.000  0.000  0.000  0.000  0.000  0.198
 
band   8 # energy   13.38852998 # occ.  0.00000000
 
ion      s     py     pz     px    dxy    dyz    dz2    dxz    dx2    tot
  1  0.004  0.014  0.007  0.042  0.000  0.000  0.000  0.000  0.000  0.068
  2  0.004  0.014  0.007  0.042  0.000  0.000  0.000  0.000  0.000  0.068
tot  0.008  0.028  0.014  0.085  0.000  0.000  0.000  0.000  0.000  0.136
 

 k-point    8 :    0.41025641 0.41025641 0.41025641     weight = 0.00625000

band   1 # energy   -4.28393542 # occ.  2.00000000
 
ion      s     py     pz     px    dxy    dyz    dz2    dxz    dx2    tot
  1  0.215  0.003  0.002  0.010  0.000  0.000  0.000  0.000  0.000  0.229
  2  0.215  0.003  0.002  0.010  0.000  0.000  0.000  0.000  0.000  0.229
tot  0.430  0.006  0.003  0.019  0.000  0.000  0.000  0.000  0.000  0.459
 
band   2 # energy   -0.68790139 # occ.  2.00000000
 
ion      s     py     pz     px    dxy    dyz    dz2    dxz    dx2    tot
  1  0.106  0.021  0.010  0.062  0.000  0.000  0.000  0.000  0.000  0.200
  2  0.106  0.021  0.010  0.062  0.000  0.000  0.000  0.000  0.000  0.200
tot  0.213  0.041  0.021  0.124  0.000  0.000  0.000  0.000  0.000  0.399
 
band   3 # energy    4.49810162 # occ.  2.00000000
 
ion      s     py     pz     px    dxy    dyz    dz2    dxz    dx2    tot
  1  0.000  0.057  0.090  0.068  0.000  0.000  0.000  0.000  0.000  0.215
  2  0.000  0.057  0.090  0.068  0.000  0.000  0.000  0.000  0.000  0.215
tot  0.000  0.114  0.180  0.135  0.000  0.000  0.000  0.000  0.000  0.429
 
band   4 # energy    4.49810162 # occ.  2.00000000
 
ion      s     py     pz     px    dxy    dyz    dz2    dxz    dx2    tot
  1  0.000  0.110  0.101  0.004  0.000  0.000  0.000  0.000  0.000  0.215
  2  0.000  0.110  0.101  0.004  0.000  0.000  0.000  0.000  0.000  0.215
tot  0.000  0.220  0.202  0.008  0.000  0.000  0.000  0.000  0.000  0.429
 
band   5 # energy    7.15366581 # occ.  0.00000000
 
ion      s     py     pz     px    dxy    dyz    dz2    dxz    dx2    tot
  1  0.181  0.005  0.003  0.016  0.000  0.000  0.000  0.000  0.000  0.205
  2  0.181  0.005  0.003  0.016  0.000  0.000  0.000  0.000  0.000  0.205
tot  0.362  0.011  0.005  0.032  0.000  0.000  0.000  0.000  0.000  0.411
 
band   6 # energy    9.02764195 # occ.  0.00000000
 
ion      s     py     pz     px    dxy    dyz    dz2    dxz    dx2    tot
  1  0.000  0.077  0.009  0.015  0.000  0.000  0.000  0.000  0.000  0.101
  2  0.000  0.077  0.009  0.015  0.000  0.000  0.000  0.000  0.000  0.101
tot  0.000  0.154  0.018  0.030  0.000  0.000  0.000  0.000  0.000  0.201
 
band   7 # energy    9.02764195 # occ.  0.00000000
 
ion      s     py     pz     px    dxy    dyz    dz2    dxz    dx2    tot
  1  0.000  0.001  0.081  0.019  0.000  0.000  0.000  0.000  0.000  0.101
  2  0.000  0.001  0.081  0.019  0.000  0.000  0.000  0.000  0.000  0.101
tot  0.000  0.003  0.161  0.038  0.000  0.000  0.000  0.000  0.000  0.201
 
band   8 # energy   13.40889457 # occ.  0.00000000
 
ion      s     py     pz     px    dxy    dyz    dz2    dxz    dx2    tot
  1  0.004  0.015  0.008  0.045  0.000  0.000  0.000  0.000  0.000  0.072
  2  0.004  0.015  0.008  0.045  0.000  0.000  0.000  0.000  0.000  0.072
tot  0.007  0.030  0.015  0.090  0.000  0.000  0.000  0.000  0.000  0.143
 

 k-point    9 :    0.39743590 0.39743590 0.39743590     weight = 0.00625000

band   1 # energy   -4.37334102 # occ.  2.00000000
 
ion      s     py     pz     px    dxy    dyz    dz2    dxz    dx2    tot
  1  0.214  0.003  0.002  0.010  0.000  0.000  0.000  0.000  0.000  0.228
  2  0.214  0.003  0.002  0.010  0.000  0.000  0.000  0.000  0.000  0.228
tot  0.427  0.006  0.003  0.019  0.000  0.000  0.000  0.000  0.000  0.456
 
band   2 # energy   -0.53877389 # occ.  2.00000000
 
ion      s     py     pz     px    dxy    dyz    dz2    dxz    dx2    tot
  1  0.107  0.021  0.010  0.063  0.000  0.000  0.000  0.000  0.000  0.201
  2  0.107  0.021  0.010  0.063  0.000  0.000  0.000  0.000  0.000  0.201
tot  0.214  0.042  0.021  0.126  0.000  0.000  0.000  0.000  0.000  0.402
 
band   3 # energy    4.51554658 # occ.  2.00000000
 
ion      s     py     pz     px    dxy    dyz    dz2    dxz    dx2    tot
  1  0.000  0.057  0.090  0.068  0.000  0.000  0.000  0.000  0.000  0.214
  2  0.000  0.057  0.090  0.068  0.000  0.000  0.000  0.000  0.000  0.214
tot  0.000  0.114  0.180  0.135  0.000  0.000  0.000  0.000  0.000  0.429
 
band   4 # energy    4.51554658 # occ.  2.00000000
 
ion      s     py     pz     px    dxy    dyz    dz2    dxz    dx2    tot
  1  0.000  0.110  0.101  0.004  0.000  0.000  0.000  0.000  0.000  0.214
  2  0.000  0.110  0.101  0.004  0.000  0.000  0.000  0.000  0.000  0.214
tot  0.000  0.220  0.201  0.008  0.000  0.000  0.000  0.000  0.000  0.429
 
band   5 # energy    7.17385219 # occ.  0.00000000
 
ion      s     py     pz     px    dxy    dyz    dz2    dxz    dx2    tot
  1  0.180  0.006  0.003  0.017  0.000  0.000  0.000  0.000  0.000  0.205
  2  0.180  0.006  0.003  0.017  0.000  0.000  0.000  0.000  0.000  0.205
tot  0.360  0.011  0.006  0.034  0.000  0.000  0.000  0.000  0.000  0.411
 
band   6 # energy    9.04341213 # occ.  0.00000000
 
ion      s     py     pz     px    dxy    dyz    dz2    dxz    dx2    tot
  1  0.000  0.074  0.017  0.011  0.000  0.000  0.000  0.000  0.000  0.102
  2  0.000  0.074  0.017  0.011  0.000  0.000  0.000  0.000  0.000  0.102
tot  0.000  0.149  0.035  0.021  0.000  0.000  0.000  0.000  0.000  0.205
 
band   7 # energy    9.04341213 # occ.  0.00000000
 
ion      s     py     pz     px    dxy    dyz    dz2    dxz    dx2    tot
  1  0.000  0.005  0.074  0.023  0.000  0.000  0.000  0.000  0.000  0.102
  2  0.000  0.005  0.074  0.023  0.000  0.000  0.000  0.000  0.000  0.102
tot  0.000  0.011  0.147  0.047  0.000  0.000  0.000  0.000  0.000  0.205
 
band   8 # energy   13.42930228 # occ.  0.00000000
 
ion      s     py     pz     px    dxy    dyz    dz2    dxz    dx2    tot
  1  0.003  0.016  0.008  0.049  0.000  0.000  0.000  0.000  0.000  0.077
  2  0.003  0.016  0.008  0.049  0.000  0.000  0.000  0.000  0.000  0.077
tot  0.007  0.033  0.016  0.098  0.000  0.000  0.000  0.000  0.000  0.154
 

 k-point   10 :    0.38461538 0.38461538 0.38461538     weight = 0.00625000

band   1 # energy   -4.46604436 # occ.  2.00000000
 
ion      s     py     pz     px    dxy    dyz    dz2    dxz    dx2    tot
  1  0.213  0.003  0.002  0.009  0.000  0.000  0.000  0.000  0.000  0.227
  2  0.213  0.003  0.002  0.009  0.000  0.000  0.000  0.000  0.000  0.227
tot  0.425  0.006  0.003  0.019  0.000  0.000  0.000  0.000  0.000  0.453
 
band   2 # energy   -0.37852114 # occ.  2.00000000
 
ion      s     py     pz     px    dxy    dyz    dz2    dxz    dx2    tot
  1  0.107  0.021  0.011  0.063  0.000  0.000  0.000  0.000  0.000  0.203
  2  0.107  0.021  0.011  0.063  0.000  0.000  0.000  0.000  0.000  0.203
tot  0.215  0.042  0.021  0.127  0.000  0.000  0.000  0.000  0.000  0.405
 
band   3 # energy    4.53531178 # occ.  2.00000000
 
ion      s     py     pz     px    dxy    dyz    dz2    dxz    dx2    tot
  1  0.000  0.057  0.090  0.068  0.000  0.000  0.000  0.000  0.000  0.214
  2  0.000  0.057  0.090  0.068  0.000  0.000  0.000  0.000  0.000  0.214
tot  0.000  0.114  0.180  0.135  0.000  0.000  0.000  0.000  0.000  0.428
 
band   4 # energy    4.53531178 # occ.  2.00000000
 
ion      s     py     pz     px    dxy    dyz    dz2    dxz    dx2    tot
  1  0.000  0.110  0.101  0.004  0.000  0.000  0.000  0.000  0.000  0.214
  2  0.000  0.110  0.101  0.004  0.000  0.000  0.000  0.000  0.000  0.214
tot  0.000  0.220  0.201  0.008  0.000  0.000  0.000  0.000  0.000  0.428
 
band   5 # energy    7.19660488 # occ.  0.00000000
 
ion      s     py     pz     px    dxy    dyz    dz2    dxz    dx2    tot
  1  0.179  0.006  0.003  0.018  0.000  0.000  0.000  0.000  0.000  0.205
  2  0.179  0.006  0.003  0.018  0.000  0.000  0.000  0.000  0.000  0.205
tot  0.358  0.012  0.006  0.035  0.000  0.000  0.000  0.000  0.000  0.411
 
band   6 # energy    9.06011992 # occ.  0.00000000
 
ion      s     py     pz     px    dxy    dyz    dz2    dxz    dx2    tot
  1  0.000  0.074  0.021  0.010  0.000  0.000  0.000  0.000  0.000  0.105
  2  0.000  0.074  0.021  0.010  0.000  0.000  0.000  0.000  0.000  0.105
tot  0.000  0.148  0.042  0.019  0.000  0.000  0.000  0.000  0.000  0.209
 
band   7 # energy    9.06011992 # occ.  0.00000000
 
ion      s     py     pz     px    dxy    dyz    dz2    dxz    dx2    tot
  1  0.000  0.007  0.072  0.025  0.000  0.000  0.000  0.000  0.000  0.105
  2  0.000  0.007  0.072  0.025  0.000  0.000  0.000  0.000  0.000  0.105
tot  0.000  0.015  0.144  0.050  0.000  0.000  0.000  0.000  0.000  0.209
 
band   8 # energy   13.44759970 # occ.  0.00000000
 
ion      s     py     pz     px    dxy    dyz    dz2    dxz    dx2    tot
  1  0.004  0.018  0.009  0.054  0.000  0.000  0.000  0.000  0.000  0.084
  2  0.004  0.018  0.009  0.054  0.000  0.000  0.000  0.000  0.000  0.084
tot  0.007  0.036  0.018  0.107  0.000  0.000  0.000  0.000  0.000  0.168
 

 k-point   11 :    0.37179487 0.37179487 0.37179487     weight = 0.00625000

band   1 # energy   -4.56069086 # occ.  2.00000000
 
ion      s     py     pz     px    dxy    dyz    dz2    dxz    dx2    tot
  1  0.212  0.003  0.002  0.009  0.000  0.000  0.000  0.000  0.000  0.225
  2  0.212  0.003  0.002  0.009  0.000  0.000  0.000  0.000  0.000  0.225
tot  0.423  0.006  0.003  0.018  0.000  0.000  0.000  0.000  0.000  0.451
 
band   2 # energy   -0.20852454 # occ.  2.00000000
 
ion      s     py     pz     px    dxy    dyz    dz2    dxz    dx2    tot
  1  0.108  0.021  0.011  0.064  0.000  0.000  0.000  0.000  0.000  0.204
  2  0.108  0.021  0.011  0.064  0.000  0.000  0.000  0.000  0.000  0.204
tot  0.215  0.043  0.021  0.129  0.000  0.000  0.000  0.000  0.000  0.408
 
band   3 # energy    4.55734799 # occ.  2.00000000
 
ion      s     py     pz     px    dxy    dyz    dz2    dxz    dx2    tot
  1  0.000  0.057  0.090  0.068  0.000  0.000  0.000  0.000  0.000  0.214