<?xml version="1.0" encoding="ISO-8859-1"?>
<modeling>
 <generator>
  <i name="program" type="string">vasp </i>
  <i name="version" type="string">5.3.2  </i>
  <i name="subversion" type="string">13Sep12 (build Nov 06 2012 17:49:15) complex                          parallel </i>
  <i name="platform" type="string">LinuxIFC </i>
  <i name="date" type="string">2014 04 10 </i>
  <i name="time" type="string">10:48:40 </i>
 </generator>
 <incar>
  <i type="string" name="PREC">accurate</i>
  <i type="int" name="ICHARG">    11</i>
  <i type="int" name="NELMIN">     6</i>
  <i name="EDIFF">      0.00000100</i>
  <i type="int" name="NSW">     0</i>
  <i name="ENCUT">    400.00000000</i>
  <i type="int" name="ISMEAR">     0</i>
  <i name="SIGMA">      0.05000000</i>
  <i type="logical" name="LORBIT"> F  </i>
 </incar>
 <kpoints>
  <generation param="listgenerated">
   <i name="divisions" type="int">      40 </i>
   <v>       0.50000000       0.50000000       0.50000000 </v>
   <v>       0.00000000       0.00000000       0.00000000 </v>
   <v>       0.00000000       0.50000000       0.50000000 </v>
   <v>       0.37500000       0.75000000       0.37500000 </v>
   <v>       0.00000000       0.00000000       0.00000000 </v>
  </generation>
  <varray name="kpointlist" >
   <v>       0.50000000       0.50000000       0.50000000 </v>
   <v>       0.48717949       0.48717949       0.48717949 </v>
   <v>       0.47435897       0.47435897       0.47435897 </v>
   <v>       0.46153846       0.46153846       0.46153846 </v>
   <v>       0.44871795       0.44871795       0.44871795 </v>
   <v>       0.43589744       0.43589744       0.43589744 </v>
   <v>       0.42307692       0.42307692       0.42307692 </v>
   <v>       0.41025641       0.41025641       0.41025641 </v>
   <v>       0.39743590       0.39743590       0.39743590 </v>
   <v>       0.38461538       0.38461538       0.38461538 </v>
   <v>       0.37179487       0.37179487       0.37179487 </v>
   <v>       0.35897436       0.35897436       0.35897436 </v>
   <v>       0.34615385       0.34615385       0.34615385 </v>
   <v>       0.33333333       0.33333333       0.33333333 </v>
   <v>       0.32051282       0.32051282       0.32051282 </v>
   <v>       0.30769231       0.30769231       0.30769231 </v>
   <v>       0.29487179       0.29487179       0.29487179 </v>
   <v>       0.28205128       0.28205128       0.28205128 </v>
   <v>       0.26923077       0.26923077       0.26923077 </v>
   <v>       0.25641026       0.25641026       0.25641026 </v>
   <v>       0.24358974       0.24358974       0.24358974 </v>
   <v>       0.23076923       0.23076923       0.23076923 </v>
   <v>       0.21794872       0.21794872       0.21794872 </v>
   <v>       0.20512821       0.20512821       0.20512821 </v>
   <v>       0.19230769       0.19230769       0.19230769 </v>
   <v>       0.17948718       0.17948718       0.17948718 </v>
   <v>       0.16666667       0.16666667       0.16666667 </v>
   <v>       0.15384615       0.15384615       0.15384615 </v>
   <v>       0.14102564       0.14102564       0.14102564 </v>
   <v>       0.12820513       0.12820513       0.12820513 </v>
   <v>       0.11538462       0.11538462       0.11538462 </v>
   <v>       0.10256410       0.10256410       0.10256410 </v>
   <v>       0.08974359       0.08974359       0.08974359 </v>
   <v>       0.07692308       0.07692308       0.07692308 </v>
   <v>       0.06410256       0.06410256       0.06410256 </v>
   <v>       0.05128205       0.05128205       0.05128205 </v>
   <v>       0.03846154       0.03846154       0.03846154 </v>
   <v>       0.02564103       0.02564103       0.02564103 </v>
   <v>       0.01282051       0.01282051       0.01282051 </v>
   <v>       0.00000000       0.00000000       0.00000000 </v>
   <v>       0.00000000       0.00000000       0.00000000 </v>
   <v>       0.00000000       0.01282051       0.01282051 </v>
   <v>       0.00000000       0.02564103       0.02564103 </v>
   <v>       0.00000000       0.03846154       0.03846154 </v>
   <v>       0.00000000       0.05128205       0.05128205 </v>
   <v>       0.00000000       0.06410256       0.06410256 </v>
   <v>       0.00000000       0.07692308       0.07692308 </v>
   <v>       0.00000000       0.08974359       0.08974359 </v>
   <v>       0.00000000       0.10256410       0.10256410 </v>
   <v>       0.00000000       0.11538462       0.11538462 </v>
   <v>       0.00000000       0.12820513       0.12820513 </v>
   <v>       0.00000000       0.14102564       0.14102564 </v>
   <v>       0.00000000       0.15384615       0.15384615 </v>
   <v>       0.00000000       0.16666667       0.16666667 </v>
   <v>       0.00000000       0.17948718       0.17948718 </v>
   <v>       0.00000000       0.19230769       0.19230769 </v>
   <v>       0.00000000       0.20512821       0.20512821 </v>
   <v>       0.00000000       0.21794872       0.21794872 </v>
   <v>       0.00000000       0.23076923       0.23076923 </v>
   <v>       0.00000000       0.24358974       0.24358974 </v>
   <v>       0.00000000       0.25641026       0.25641026 </v>
   <v>       0.00000000       0.26923077       0.26923077 </v>
   <v>       0.00000000       0.28205128       0.28205128 </v>
   <v>       0.00000000       0.29487179       0.29487179 </v>
   <v>       0.00000000       0.30769231       0.30769231 </v>
   <v>       0.00000000       0.32051282       0.32051282 </v>
   <v>       0.00000000       0.33333333       0.33333333 </v>
   <v>       0.00000000       0.34615385       0.34615385 </v>
   <v>       0.00000000       0.35897436       0.35897436 </v>
   <v>       0.00000000       0.37179487       0.37179487 </v>
   <v>       0.00000000       0.38461538       0.38461538 </v>
   <v>       0.00000000       0.39743590       0.39743590 </v>
   <v>       0.00000000       0.41025641       0.41025641 </v>
   <v>       0.00000000       0.42307692       0.42307692 </v>
   <v>       0.00000000       0.43589744       0.43589744 </v>
   <v>       0.00000000       0.44871795       0.44871795 </v>
   <v>       0.00000000       0.46153846       0.46153846 </v>
   <v>       0.00000000       0.47435897       0.47435897 </v>
   <v>       0.00000000       0.48717949       0.48717949 </v>
   <v>       0.00000000       0.50000000       0.50000000 </v>
   <v>       0.00000000       0.50000000       0.50000000 </v>
   <v>       0.00641026       0.50320513       0.50320513 </v>
   <v>       0.01282051       0.50641026       0.50641026 </v>
   <v>       0.01923077       0.50961538       0.50961538 </v>
   <v>       0.02564103       0.51282051       0.51282051 </v>
   <v>       0.03205128       0.51602564       0.51602564 </v>
   <v>       0.03846154       0.51923077       0.51923077 </v>
   <v>       0.04487179       0.52243590       0.52243590 </v>
   <v>       0.05128205       0.52564103       0.52564103 </v>
   <v>       0.05769231       0.52884615       0.52884615 </v>
   <v>       0.06410256       0.53205128       0.53205128 </v>
   <v>       0.07051282       0.53525641       0.53525641 </v>
   <v>       0.07692308       0.53846154       0.53846154 </v>
   <v>       0.08333333       0.54166667       0.54166667 </v>
   <v>       0.08974359       0.54487179       0.54487179 </v>
   <v>       0.09615385       0.54807692       0.54807692 </v>
   <v>       0.10256410       0.55128205       0.55128205 </v>
   <v>       0.10897436       0.55448718       0.55448718 </v>
   <v>       0.11538462       0.55769231       0.55769231 </v>
   <v>       0.12179487       0.56089744       0.56089744 </v>
   <v>       0.12820513       0.56410256       0.56410256 </v>
   <v>       0.13461538       0.56730769       0.56730769 </v>
   <v>       0.14102564       0.57051282       0.57051282 </v>
   <v>       0.14743590       0.57371795       0.57371795 </v>
   <v>       0.15384615       0.57692308       0.57692308 </v>
   <v>       0.16025641       0.58012821       0.58012821 </v>
   <v>       0.16666667       0.58333333       0.58333333 </v>
   <v>       0.17307692       0.58653846       0.58653846 </v>
   <v>       0.17948718       0.58974359       0.58974359 </v>
   <v>       0.18589744       0.59294872       0.59294872 </v>
   <v>       0.19230769       0.59615385       0.59615385 </v>
   <v>       0.19871795       0.59935897       0.59935897 </v>
   <v>       0.20512821       0.60256410       0.60256410 </v>
   <v>       0.21153846       0.60576923       0.60576923 </v>
   <v>       0.21794872       0.60897436       0.60897436 </v>
   <v>       0.22435897       0.61217949       0.61217949 </v>
   <v>       0.23076923       0.61538462       0.61538462 </v>
   <v>       0.23717949       0.61858974       0.61858974 </v>
   <v>       0.24358974       0.62179487       0.62179487 </v>
   <v>       0.25000000       0.62500000       0.62500000 </v>
   <v>       0.37500000       0.75000000       0.37500000 </v>
   <v>       0.36538462       0.73076923       0.36538462 </v>
   <v>       0.35576923       0.71153846       0.35576923 </v>
   <v>       0.34615385       0.69230769       0.34615385 </v>
   <v>       0.33653846       0.67307692       0.33653846 </v>
   <v>       0.32692308       0.65384615       0.32692308 </v>
   <v>       0.31730769       0.63461538       0.31730769 </v>
   <v>       0.30769231       0.61538462       0.30769231 </v>
   <v>       0.29807692       0.59615385       0.29807692 </v>
   <v>       0.28846154       0.57692308       0.28846154 </v>
   <v>       0.27884615       0.55769231       0.27884615 </v>
   <v>       0.26923077       0.53846154       0.26923077 </v>
   <v>       0.25961538       0.51923077       0.25961538 </v>
   <v>       0.25000000       0.50000000       0.25000000 </v>
   <v>       0.24038462       0.48076923       0.24038462 </v>
   <v>       0.23076923       0.46153846       0.23076923 </v>
   <v>       0.22115385       0.44230769       0.22115385 </v>
   <v>       0.21153846       0.42307692       0.21153846 </v>
   <v>       0.20192308       0.40384615       0.20192308 </v>
   <v>       0.19230769       0.38461538       0.19230769 </v>
   <v>       0.18269231       0.36538462       0.18269231 </v>
   <v>       0.17307692       0.34615385       0.17307692 </v>
   <v>       0.16346154       0.32692308       0.16346154 </v>
   <v>       0.15384615       0.30769231       0.15384615 </v>
   <v>       0.14423077       0.28846154       0.14423077 </v>
   <v>       0.13461538       0.26923077       0.13461538 </v>
   <v>       0.12500000       0.25000000       0.12500000 </v>
   <v>       0.11538462       0.23076923       0.11538462 </v>
   <v>       0.10576923       0.21153846       0.10576923 </v>
   <v>       0.09615385       0.19230769       0.09615385 </v>
   <v>       0.08653846       0.17307692       0.08653846 </v>
   <v>       0.07692308       0.15384615       0.07692308 </v>
   <v>       0.06730769       0.13461538       0.06730769 </v>
   <v>       0.05769231       0.11538462       0.05769231 </v>
   <v>       0.04807692       0.09615385       0.04807692 </v>
   <v>       0.03846154       0.07692308       0.03846154 </v>
   <v>       0.02884615       0.05769231       0.02884615 </v>
   <v>       0.01923077       0.03846154       0.01923077 </v>
   <v>       0.00961538       0.01923077       0.00961538 </v>
   <v>       0.00000000       0.00000000       0.00000000 </v>
  </varray>
  <varray name="weights" >
   <v>       0.00625000 </v>
   <v>       0.00625000 </v>
   <v>       0.00625000 </v>
   <v>       0.00625000 </v>
   <v>       0.00625000 </v>
   <v>       0.00625000 </v>
   <v>       0.00625000 </v>
   <v>       0.00625000 </v>
   <v>       0.00625000 </v>
   <v>       0.00625000 </v>
   <v>       0.00625000 </v>
   <v>       0.00625000 </v>
   <v>       0.00625000 </v>
   <v>       0.00625000 </v>
   <v>       0.00625000 </v>
   <v>       0.00625000 </v>
   <v>       0.00625000 </v>
   <v>       0.00625000 </v>
   <v>       0.00625000 </v>
   <v>       0.00625000 </v>
   <v>       0.00625000 </v>
   <v>       0.00625000 </v>
   <v>       0.00625000 </v>
   <v>       0.00625000 </v>
   <v>       0.00625000 </v>
   <v>       0.00625000 </v>
   <v>       0.00625000 </v>
   <v>       0.00625000 </v>
   <v>       0.00625000 </v>
   <v>       0.00625000 </v>
   <v>       0.00625000 </v>
   <v>       0.00625000 </v>
   <v>       0.00625000 </v>
   <v>       0.00625000 </v>
   <v>       0.00625000 </v>
   <v>       0.00625000 </v>
   <v>       0.00625000 </v>
   <v>       0.00625000 </v>
   <v>       0.00625000 </v>
   <v>       0.00625000 </v>
   <v>       0.00625000 </v>
   <v>       0.00625000 </v>
   <v>       0.00625000 </v>
   <v>       0.00625000 </v>
   <v>       0.00625000 </v>
   <v>       0.00625000 </v>
   <v>       0.00625000 </v>
   <v>       0.00625000 </v>
   <v>       0.00625000 </v>
   <v>       0.00625000 </v>
   <v>       0.00625000 </v>
   <v>       0.00625000 </v>
   <v>       0.00625000 </v>
   <v>       0.00625000 </v>
   <v>       0.00625000 </v>
   <v>       0.00625000 </v>
   <v>       0.00625000 </v>
   <v>       0.00625000 </v>
   <v>       0.00625000 </v>
   <v>       0.00625000 </v>
   <v>       0.00625000 </v>
   <v>       0.00625000 </v>
   <v>       0.00625000 </v>
   <v>       0.00625000 </v>
   <v>       0.00625000 </v>
   <v>       0.00625000 </v>
   <v>       0.00625000 </v>
   <v>       0.00625000 </v>
   <v>       0.00625000 </v>
   <v>       0.00625000 </v>
   <v>       0.00625000 </v>
   <v>       0.00625000 </v>
   <v>       0.00625000 </v>
   <v>       0.00625000 </v>
   <v>       0.00625000 </v>
   <v>       0.00625000 </v>
   <v>       0.00625000 </v>
   <v>       0.00625000 </v>
   <v>       0.00625000 </v>
   <v>       0.00625000 </v>
   <v>       0.00625000 </v>
   <v>       0.00625000 </v>
   <v>       0.00625000 </v>
   <v>       0.00625000 </v>
   <v>       0.00625000 </v>
   <v>       0.00625000 </v>
   <v>       0.00625000 </v>
   <v>       0.00625000 </v>
   <v>       0.00625000 </v>
   <v>       0.00625000 </v>
   <v>       0.00625000 </v>
   <v>       0.00625000 </v>
   <v>       0.00625000 </v>
   <v>       0.00625000 </v>
   <v>       0.00625000 </v>
   <v>       0.00625000 </v>
   <v>       0.00625000 </v>
   <v>       0.00625000 </v>
   <v>       0.00625000 </v>
   <v>       0.00625000 </v>
   <v>       0.00625000 </v>
   <v>       0.00625000 </v>
   <v>       0.00625000 </v>
   <v>       0.00625000 </v>
   <v>       0.00625000 </v>
   <v>       0.00625000 </v>
   <v>       0.00625000 </v>
   <v>       0.00625000 </v>
   <v>       0.00625000 </v>
   <v>       0.00625000 </v>
   <v>       0.00625000 </v>
   <v>       0.00625000 </v>
   <v>       0.00625000 </v>
   <v>       0.00625000 </v>
   <v>       0.00625000 </v>
   <v>       0.00625000 </v>
   <v>       0.00625000 </v>
   <v>       0.00625000 </v>
   <v>       0.00625000 </v>
   <v>       0.00625000 </v>
   <v>       0.00625000 </v>
   <v>       0.00625000 </v>
   <v>       0.00625000 </v>
   <v>       0.00625000 </v>
   <v>       0.00625000 </v>
   <v>       0.00625000 </v>
   <v>       0.00625000 </v>
   <v>       0.00625000 </v>
   <v>       0.00625000 </v>
   <v>       0.00625000 </v>
   <v>       0.00625000 </v>
   <v>       0.00625000 </v>
   <v>       0.00625000 </v>
   <v>       0.00625000 </v>
   <v>       0.00625000 </v>
   <v>       0.00625000 </v>
   <v>       0.00625000 </v>
   <v>       0.00625000 </v>
   <v>       0.00625000 </v>
   <v>       0.00625000 </v>
   <v>       0.00625000 </v>
   <v>       0.00625000 </v>
   <v>       0.00625000 </v>
   <v>       0.00625000 </v>
   <v>       0.00625000 </v>
   <v>       0.00625000 </v>
   <v>       0.00625000 </v>
   <v>       0.00625000 </v>
   <v>       0.00625000 </v>
   <v>       0.00625000 </v>
   <v>       0.00625000 </v>
   <v>       0.00625000 </v>
   <v>       0.00625000 </v>
   <v>       0.00625000 </v>
   <v>       0.00625000 </v>
   <v>       0.00625000 </v>
   <v>       0.00625000 </v>
   <v>       0.00625000 </v>
   <v>       0.00625000 </v>
   <v>       0.00625000 </v>
  </varray>
 </kpoints>
 <parameters>
  <separator name="general" >
   <i type="string" name="SYSTEM">unknown system</i>
   <i type="logical" name="LCOMPAT"> F  </i>
  </separator>
  <separator name="electronic" >
   <i type="string" name="PREC">accura</i>
   <i name="ENMAX">    400.00000000</i>
   <i name="ENAUG">    322.06900000</i>
   <i name="EDIFF">      0.00000100</i>
   <i type="int" name="IALGO">    38</i>
   <i type="int" name="IWAVPR">    10</i>
   <i type="int" name="NBANDS">     8</i>
   <i name="NELECT">      8.00000000</i>
   <i type="int" name="TURBO">     0</i>
   <i type="int" name="IRESTART">     0</i>
   <i type="int" name="NREBOOT">     0</i>
   <i type="int" name="NMIN">     0</i>
   <i name="EREF">      0.00000000</i>
   <separator name="electronic smearing" >
    <i type="int" name="ISMEAR">     0</i>
    <i name="SIGMA">      0.05000000</i>
    <i name="KSPACING">      0.50000000</i>
    <i type="logical" name="KGAMMA"> T  </i>
   </separator>
   <separator name="electronic projectors" >
    <i type="logical" name="LREAL"> F  </i>
    <v name="ROPT">      0.00000000</v>
    <i type="int" name="LMAXPAW">  -100</i>
    <i type="int" name="LMAXMIX">     2</i>
    <i type="logical" name="NLSPLINE"> F  </i>
   </separator>
   <separator name="electronic startup" >
    <i type="int" name="ISTART">     0</i>
    <i type="int" name="ICHARG">    11</i>
    <i type="int" name="INIWAV">     1</i>
   </separator>
   <separator name="electronic spin" >
    <i type="int" name="ISPIN">     1</i>
    <i type="logical" name="LNONCOLLINEAR"> F  </i>
    <v name="MAGMOM">      1.00000000      1.00000000</v>
    <i name="NUPDOWN">     -1.00000000</i>
    <i type="logical" name="LSORBIT"> F  </i>
    <v name="SAXIS">      0.00000000      0.00000000      1.00000000</v>
    <i type="logical" name="LSPIRAL"> F  </i>
    <v name="QSPIRAL">      0.00000000      0.00000000      0.00000000</v>
    <i type="logical" name="LZEROZ"> F  </i>
   </separator>
   <separator name="electronic exchange-correlation" >
    <i type="logical" name="LASPH"> F  </i>
    <i type="logical" name="LMETAGGA"> F  </i>
   </separator>
   <separator name="electronic convergence" >
    <i type="int" name="NELM">    60</i>
    <i type="int" name="NELMDL">    -5</i>
    <i type="int" name="NELMIN">     6</i>
    <i name="ENINI">    400.00000000</i>
    <separator name="electronic convergence detail" >
     <i type="logical" name="LDIAG"> T  </i>
     <i type="logical" name="LSUBROT"> T  </i>
     <i name="WEIMIN">      0.00000000</i>
     <i name="EBREAK">      0.00000003</i>
     <i name="DEPER">      0.30000000</i>
     <i type="int" name="NRMM">     4</i>
     <i name="TIME">      0.40000000</i>
    </separator>
   </separator>
   <separator name="electronic mixer" >
    <i name="AMIX">      0.40000000</i>
    <i name="BMIX">      1.00000000</i>
    <i name="AMIN">      0.10000000</i>
    <i name="AMIX_MAG">      1.60000000</i>
    <i name="BMIX_MAG">      1.00000000</i>
    <separator name="electronic mixer details" >
     <i type="int" name="IMIX">     4</i>
     <i type="int" name="MAXMIX">   -45</i>
     <i name="WC">    100.00000000</i>
     <i type="int" name="INIMIX">     1</i>
     <i type="int" name="MIXPRE">     1</i>
     <i type="int" name="MREMOVE">     5</i>
    </separator>
   </separator>
   <separator name="electronic dipolcorrection" >
    <i type="logical" name="LDIPOL"> F  </i>
    <i type="logical" name="LMONO"> F  </i>
    <i type="int" name="IDIPOL">     0</i>
    <i name="EPSILON">      1.00000000</i>
    <v name="DIPOL">   -100.00000000   -100.00000000   -100.00000000</v>
    <i name="EFIELD">      0.00000000</i>
   </separator>
  </separator>
  <separator name="grids" >
   <i type="int" name="NGX">    28</i>
   <i type="int" name="NGY">    28</i>
   <i type="int" name="NGZ">    28</i>
   <i type="int" name="NGXF">    56</i>
   <i type="int" name="NGYF">    56</i>
   <i type="int" name="NGZF">    56</i>
   <i type="logical" name="ADDGRID"> F  </i>
  </separator>
  <separator name="ionic" >
   <i type="int" name="NSW">     0</i>
   <i type="int" name="IBRION">    -1</i>
   <i type="int" name="ISIF">     2</i>
   <i name="PSTRESS">      0.00000000</i>
   <i name="EDIFFG">      0.00001000</i>
   <i type="int" name="NFREE">     0</i>
   <i name="POTIM">      0.50000000</i>
   <i name="SMASS">     -3.00000000</i>
   <i name="SCALEE">      1.00000000</i>
  </separator>
  <separator name="ionic md" >
   <i name="TEBEG">      0.00010000</i>
   <i name="TEEND">      0.00010000</i>
   <i type="int" name="NBLOCK">     1</i>
   <i type="int" name="KBLOCK">     1</i>
   <i type="int" name="NPACO">   256</i>
   <i name="APACO">     16.00000000</i>
  </separator>
  <separator name="symmetry" >
   <i type="int" name="ISYM">     2</i>
   <i name="SYMPREC">      0.00001000</i>
  </separator>
  <separator name="dos" >
   <i type="logical" name="LORBIT"> F  </i>
   <v name="RWIGS">     -1.00000000</v>
   <i type="int" name="NEDOS">   301</i>
   <i name="EMIN">     10.00000000</i>
   <i name="EMAX">    -10.00000000</i>
   <i name="EFERMI">      0.00000000</i>
  </separator>
  <separator name="writing" >
   <i type="int" name="NWRITE">     2</i>
   <i type="logical" name="LWAVE"> T  </i>
   <i type="logical" name="LCHARG"> T  </i>
   <i type="logical" name="LPARD"> F  </i>
   <i type="logical" name="LVTOT"> F  </i>
   <i type="logical" name="LVHAR"> F  </i>
   <i type="logical" name="LELF"> F  </i>
   <i type="logical" name="LOPTICS"> F  </i>
   <v name="STM">      0.00000000      0.00000000      0.00000000      0.00000000      0.00000000      0.00000000      0.00000000</v>
  </separator>
  <separator name="performance" >
   <i type="int" name="NPAR">     4</i>
   <i type="int" name="NSIM">     4</i>
   <i type="int" name="NBLK">    -1</i>
   <i type="logical" name="LPLANE"> T  </i>
   <i type="logical" name="LSCALAPACK"> F  </i>
   <i type="logical" name="LSCAAWARE"> F  </i>
   <i type="logical" name="LSCALU"> F  </i>
   <i type="logical" name="LASYNC"> F  </i>
   <i type="logical" name="LORBITALREAL"> F  </i>
  </separator>
  <separator name="miscellaneous" >
   <i type="int" name="IDIOT">     3</i>
   <i type="logical" name="LMUSIC"> F  </i>
   <v name="POMASS">     28.08500000</v>
   <v name="DARWINR">      0.00000000</v>
   <v name="DARWINV">      1.00000000</v>
   <i type="logical" name="LCORR"> T  </i>
  </separator>
  <i type="logical" name="GGA_COMPAT"> T  </i>
  <i type="logical" name="LBERRY"> F  </i>
  <i type="int" name="ICORELEVEL">     0</i>
  <i type="logical" name="LDAU"> F  </i>
  <i type="int" name="I_CONSTRAINED_M">     0</i>
  <separator name="electronic exchange-correlation" >
   <i type="string" name="GGA">--</i>
   <i type="int" name="VOSKOWN">     0</i>
   <i type="logical" name="LHFCALC"> F  </i>
   <i type="string" name="PRECFOCK"></i>
   <i type="logical" name="LSYMGRAD"> F  </i>
   <i type="logical" name="LHFONE"> F  </i>
   <i type="logical" name="LRHFCALC"> F  </i>
   <i type="logical" name="LTHOMAS"> F  </i>
   <i type="logical" name="LMODELHF"> F  </i>
   <i name="ENCUT4O">     -1.00000000</i>
   <i type="int" name="EXXOEP">     0</i>
   <i type="int" name="FOURORBIT">     0</i>
   <i name="AEXX">      0.00000000</i>
   <i name="HFALPHA">      0.00000000</i>
   <i name="MCALPHA">      0.00000000</i>
   <i name="ALDAX">      1.00000000</i>
   <i name="AGGAX">      1.00000000</i>
   <i name="ALDAC">      1.00000000</i>
   <i name="AGGAC">      1.00000000</i>
   <i type="int" name="NKREDX">     1</i>
   <i type="int" name="NKREDY">     1</i>
   <i type="int" name="NKREDZ">     1</i>
   <i type="logical" name="SHIFTRED"> F  </i>
   <i type="logical" name="ODDONLY"> F  </i>
   <i type="logical" name="EVENONLY"> F  </i>
   <i type="int" name="LMAXFOCK">     0</i>
   <i type="int" name="NMAXFOCKAE">     0</i>
   <i type="logical" name="LFOCKAEDFT"> F  </i>
   <i name="HFSCREEN">      0.00000000</i>
   <i name="HFSCREENC">      0.00000000</i>
   <i type="int" name="NBANDSGWLOW">     0</i>
  </separator>
  <separator name="vdW DFT" >
   <i type="logical" name="LUSE_VDW"> F  </i>
   <i name="Zab_VDW">     -0.84910000</i>
   <i name="PARAM1">      0.12340000</i>
   <i name="PARAM2">      1.00000000</i>
   <i name="PARAM3">      0.00000000</i>
  </separator>
  <separator name="model GW" >
   <i type="int" name="MODEL_GW">     0</i>
   <i name="MODEL_EPS0">     12.26387372</i>
   <i name="MODEL_ALPHA">      1.00000000</i>
  </separator>
  <separator name="linear response parameters" >
   <i type="logical" name="LEPSILON"> F  </i>
   <i type="logical" name="LRPA"> F  </i>
   <i type="logical" name="LNABLA"> F  </i>
   <i type="logical" name="LVEL"> F  </i>
   <i type="int" name="KINTER">     0</i>
   <i name="CSHIFT">      0.10000000</i>
   <i name="OMEGAMAX">     -1.00000000</i>
   <i name="DEG_THRESHOLD">      0.00200000</i>
  </separator>
  <separator name="orbital magnetization" >
   <i type="logical" name="NUCIND"> F  </i>
   <v name="MAGPOS">      0.00000000      0.00000000      0.00000000</v>
   <i type="logical" name="LNICSALL"> T  </i>
   <i type="logical" name="ORBITALMAG"> F  </i>
   <i type="logical" name="LMAGBLOCH"> F  </i>
   <i type="logical" name="LCHIMAG"> F  </i>
   <i type="logical" name="LGAUGE"> T  </i>
   <i type="int" name="MAGATOM">     0</i>
   <v name="MAGDIPOL">      0.00000000      0.00000000      0.00000000</v>
   <v name="AVECCONST">      0.00000000      0.00000000      0.00000000</v>
  </separator>
  <separator name="response functions" >
   <i type="logical" name="LADDER"> F  </i>
   <i type="logical" name="LHARTREE"> T  </i>
   <i type="int" name="IBSE">     0</i>
   <i type="logical" name="LTCTE"> F  </i>
   <i type="logical" name="LTETE"> F  </i>
   <i type="logical" name="LTRIPLET"> F  </i>
   <i type="logical" name="LFXCEPS"> F  </i>
   <i type="logical" name="L2ORDER"> F  </i>
   <i type="logical" name="LUSEW"> F  </i>
   <i name="ENCUTGW">     -2.00000000</i>
   <i name="ENCUTGWSOFT">     -2.00000000</i>
   <i name="ENCUTLF">     -1.00000000</i>
   <i type="int" name="LMAXMP2">    -1</i>
   <i name="SCISSOR">      0.00000000</i>
   <i type="int" name="NOMEGA">     0</i>
   <i type="int" name="NOMEGAR">     0</i>
   <i type="int" name="NBANDSGW">    -1</i>
   <i type="int" name="NBANDSO">    -1</i>
   <i type="int" name="NBANDSV">    -1</i>
   <i type="int" name="NELM">     1</i>
   <i type="int" name="DIM">     3</i>
   <i type="int" name="ANTIRES">     0</i>
   <i name="OMEGAMAX">    -30.00000000</i>
   <i name="OMEGATL">   -200.00000000</i>
   <i type="int" name="OMEGAGRID">     0</i>
   <i name="CSHIFT">     -0.10000000</i>
   <i type="logical" name="SELFENERGY"> F  </i>
   <i type="logical" name="LSPECTRAL"> F  </i>
   <i type="logical" name="ODDONLYGW"> F  </i>
   <i type="logical" name="EVENONLYGW"> F  </i>
   <i type="int" name="NKREDLFX">     1</i>
   <i type="int" name="NKREDLFY">     1</i>
   <i type="int" name="NKREDLFZ">     1</i>
   <i type="int" name="MAXMEM">  1800</i>
   <i type="int" name="TELESCOPE">     0</i>
  </separator>
 </parameters>
 <atominfo>
  <atoms>       2 </atoms>
  <types>       1 </types>
  <array name="atoms" >
   <dimension dim="1">ion</dimension>
   <field type="string">element</field>
   <field type="int">atomtype</field>
   <set>
    <rc><c>Si</c><c>   1</c></rc>
    <rc><c>Si</c><c>   1</c></rc>
   </set>
  </array>
  <array name="atomtypes" >
   <dimension dim="1">type</dimension>
   <field type="int">atomspertype</field>
   <field type="string">element</field>
   <field>mass</field>
   <field>valence</field>
   <field type="string">pseudopotential</field>
   <set>
    <rc><c>   2</c><c>Si</c><c>     28.08500000</c><c>      4.00000000</c><c> PAW_PBE Si 05Jan2001                   </c></rc>
   </set>
  </array>
 </atominfo>
 <structure name="initialpos" >
  <crystal>
   <varray name="basis" >
    <v>       3.86669993       0.00000000       0.00000000 </v>
    <v>       1.93334997       3.34866037       0.00000000 </v>
    <v>       1.93334997       1.11622012       3.15714728 </v>
   </varray>
   <i name="volume">     40.87957906 </i>
   <varray name="rec_basis" >
    <v>       0.25861846      -0.14931344      -0.10558055 </v>
    <v>       0.00000000       0.29862688      -0.10558055 </v>
    <v>       0.00000000       0.00000000       0.31674164 </v>
   </varray>
  </crystal>
  <varray name="positions" >
   <v>       0.12500000       0.12500000       0.12500000 </v>
   <v>       0.87500000       0.87500000       0.87500000 </v>
  </varray>
 </structure>
 <calculation>
  <scstep>
   <time name="dav">    2.30    2.38</time>
   <time name="total">    2.47    2.58</time>
   <energy>
    <i name="alphaZ">      3.29387720 </i>
    <i name="ewald">   -226.96102592 </i>
    <i name="hartreedc">    -15.18137941 </i>
    <i name="XCdc">    -18.05649600 </i>
    <i name="pawpsdc">     73.62591634 </i>
    <i name="pawaedc">    -38.64529723 </i>
    <i name="eentropy">     -0.00107533 </i>
    <i name="bandstr">     22.66567204 </i>
    <i name="atom">    206.13149246 </i>
    <i name="e_fr_energy">      6.87168414 </i>
    <i name="e_wo_entrp">      6.87275947 </i>
    <i name="e_0_energy">      6.87222181 </i>
   </energy>
  </scstep>
  <scstep>
   <time name="dav">    3.34    3.38</time>
   <time name="total">    3.34    3.40</time>
   <energy>
    <i name="e_fr_energy">     -6.81849394 </i>
    <i name="e_wo_entrp">     -6.81849394 </i>
    <i name="e_0_energy">     -6.81849394 </i>
   </energy>
  </scstep>
  <scstep>
   <time name="dav">    2.74    2.79</time>
   <time name="total">    2.74    2.82</time>
   <energy>
    <i name="e_fr_energy">     -7.00598070 </i>
    <i name="e_wo_entrp">     -7.00598070 </i>
    <i name="e_0_energy">     -7.00598070 </i>
   </energy>
  </scstep>
  <scstep>
   <time name="dav">    3.63    3.78</time>
   <time name="total">    3.63    3.81</time>
   <energy>
    <i name="e_fr_energy">     -7.00685105 </i>
    <i name="e_wo_entrp">     -7.00685105 </i>
    <i name="e_0_energy">     -7.00685105 </i>
   </energy>
  </scstep>
  <scstep>
   <time name="dav">    4.04    4.45</time>
   <time name="total">    4.04    4.49</time>
   <energy>
    <i name="e_fr_energy">     -7.00685221 </i>
    <i name="e_wo_entrp">     -7.00685221 </i>
    <i name="e_0_energy">     -7.00685221 </i>
   </energy>
  </scstep>
  <scstep>
   <time name="dav">    5.08    6.58</time>
   <time name="total">    5.09    6.61</time>
   <energy>
    <i name="alphaZ">      3.29387720 </i>
    <i name="ewald">   -226.96102592 </i>
    <i name="hartreedc">    -15.18137941 </i>
    <i name="XCdc">    -18.05649600 </i>
    <i name="pawpsdc">     73.62591634 </i>
    <i name="pawaedc">    -38.64529723 </i>
    <i name="eentropy">      0.00000000 </i>
    <i name="bandstr">      8.78606033 </i>
    <i name="atom">    206.13149246 </i>
    <i name="e_fr_energy">     -7.00685223 </i>
    <i name="e_wo_entrp">     -7.00685223 </i>
    <i name="e_0_energy">     -7.00685223 </i>
   </energy>
  </scstep>
  <structure>
   <crystal>
    <varray name="basis" >
     <v>       3.86669993       0.00000000       0.00000000 </v>
     <v>       1.93334997       3.34866037       0.00000000 </v>
     <v>       1.93334997       1.11622012       3.15714728 </v>
    </varray>
    <i name="volume">     40.87957906 </i>
    <varray name="rec_basis" >
     <v>       0.25861846      -0.14931344      -0.10558055 </v>
     <v>       0.00000000       0.29862688      -0.10558055 </v>
     <v>       0.00000000       0.00000000       0.31674164 </v>
    </varray>
   </crystal>
   <varray name="positions" >
    <v>       0.12500000       0.12500000       0.12500000 </v>
    <v>       0.87500000       0.87500000       0.87500000 </v>
   </varray>
  </structure>
  <varray name="forces" >
   <v>       0.00000000       0.00000000       0.00000000 </v>
   <v>       0.00000000       0.00000000       0.00000000 </v>
  </varray>
  <varray name="stress" >
   <v>     153.73385257       0.00000000       0.00000000 </v>
   <v>       0.00000000     153.73385257       0.00000000 </v>
   <v>       0.00000000       0.00000000     153.73385257 </v>
  </varray>
  <energy>
   <i name="e_fr_energy">     -7.00685223 </i>
   <i name="e_wo_entrp">     -7.00685223 </i>
   <i name="e_0_energy">      0.00000000 </i>
  </energy>
  <time name="totalsc">   22.91   25.54</time>
  <eigenvalues>
   <array>
    <dimension dim="1">band</dimension>
    <dimension dim="2">kpoint</dimension>
    <dimension dim="3">spin</dimension>
    <field>eigene</field>
    <field>occ</field>
    <set>
     <set comment="spin 1">
      <set comment="kpoint 1">
       <r>   -3.9174    1.0000 </r>
       <r>   -1.2502    1.0000 </r>
       <r>    4.4410    1.0000 </r>
       <r>    4.4410    1.0000 </r>
       <r>    7.0872    0.0000 </r>
       <r>    8.9688    0.0000 </r>
       <r>    8.9688    0.0000 </r>
       <r>   13.3223    0.0000 </r>
      </set>
      <set comment="kpoint 2">
       <r>   -3.9265    1.0000 </r>
       <r>   -1.2371    1.0000 </r>
       <r>    4.4421    1.0000 </r>
       <r>    4.4421    1.0000 </r>
       <r>    7.0886    0.0000 </r>
       <r>    8.9701    0.0000 </r>
       <r>    8.9701    0.0000 </r>
       <r>   13.3243    0.0000 </r>
      </set>
      <set comment="kpoint 3">
       <r>   -3.9533    1.0000 </r>
       <r>   -1.1983    1.0000 </r>
       <r>    4.4456    1.0000 </r>
       <r>    4.4456    1.0000 </r>
       <r>    7.0927    0.0000 </r>
       <r>    8.9740    0.0000 </r>
       <r>    8.9740    0.0000 </r>
       <r>   13.3302    0.0000 </r>
      </set>
      <set comment="kpoint 4">
       <r>   -3.9963    1.0000 </r>
       <r>   -1.1353    1.0000 </r>
       <r>    4.4515    1.0000 </r>
       <r>    4.4515    1.0000 </r>
       <r>    7.0995    0.0000 </r>
       <r>    8.9805    0.0000 </r>
       <r>    8.9805    0.0000 </r>
       <r>   13.3400    0.0000 </r>
      </set>
      <set comment="kpoint 5">
       <r>   -4.0533    1.0000 </r>
       <r>   -1.0503    1.0000 </r>
       <r>    4.4596    1.0000 </r>
       <r>    4.4596    1.0000 </r>
       <r>    7.1090    0.0000 </r>
       <r>    8.9892    0.0000 </r>
       <r>    8.9892    0.0000 </r>
       <r>   13.3533    0.0000 </r>
      </set>
      <set comment="kpoint 6">
       <r>   -4.1218    1.0000 </r>
       <r>   -0.9458    1.0000 </r>
       <r>    4.4701    1.0000 </r>
       <r>    4.4701    1.0000 </r>
       <r>    7.1212    0.0000 </r>
       <r>    9.0001    0.0000 </r>
       <r>    9.0001    0.0000 </r>
       <r>   13.3697    0.0000 </r>
      </set>
      <set comment="kpoint 7">
       <r>   -4.1995    1.0000 </r>
       <r>   -0.8242    1.0000 </r>
       <r>    4.4830    1.0000 </r>
       <r>    4.4830    1.0000 </r>
       <r>    7.1361    0.0000 </r>
       <r>    9.0130    0.0000 </r>
       <r>    9.0130    0.0000 </r>
       <r>   13.3885    0.0000 </r>
      </set>
      <set comment="kpoint 8">
       <r>   -4.2839    1.0000 </r>
       <r>   -0.6879    1.0000 </r>
       <r>    4.4981    1.0000 </r>
       <r>    4.4981    1.0000 </r>
       <r>    7.1537    0.0000 </r>
       <r>    9.0276    0.0000 </r>
       <r>    9.0276    0.0000 </r>
       <r>   13.4089    0.0000 </r>
      </set>
      <set comment="kpoint 9">
       <r>   -4.3733    1.0000 </r>
       <r>   -0.5388    1.0000 </r>
       <r>    4.5155    1.0000 </r>
       <r>    4.5155    1.0000 </r>
       <r>    7.1739    0.0000 </r>
       <r>    9.0434    0.0000 </r>
       <r>    9.0434    0.0000 </r>
       <r>   13.4293    0.0000 </r>
      </set>
      <set comment="kpoint 10">
       <r>   -4.4660    1.0000 </r>
       <r>   -0.3785    1.0000 </r>
       <r>    4.5353    1.0000 </r>
       <r>    4.5353    1.0000 </r>
       <r>    7.1966    0.0000 </r>
       <r>    9.0601    0.0000 </r>
       <r>    9.0601    0.0000 </r>
       <r>   13.4476    0.0000 </r>
      </set>
      <set comment="kpoint 11">
       <r>   -4.5607    1.0000 </r>
       <r>   -0.2085    1.0000 </r>
       <r>    4.5573    1.0000 </r>
       <r>    4.5573    1.0000 </r>
       <r>    7.2220    0.0000 </r>
       <r>    9.0770    0.0000 </r>
       <r>    9.0770    0.0000 </r>
       <r>   13.4605    0.0000 </r>
      </set>
      <set comment="kpoint 12">
       <r>   -4.6562    1.0000 </r>
       <r>   -0.0299    1.0000 </r>
       <r>    4.5817    1.0000 </r>
       <r>    4.5817    1.0000 </r>
       <r>    7.2499    0.0000 </r>
       <r>    9.0936    0.0000 </r>
       <r>    9.0936    0.0000 </r>
       <r>   13.4628    0.0000 </r>
      </set>
      <set comment="kpoint 13">
       <r>   -4.7516    1.0000 </r>
       <r>    0.1563    1.0000 </r>
       <r>    4.6082    1.0000 </r>
       <r>    4.6082    1.0000 </r>
       <r>    7.2803    0.0000 </r>
       <r>    9.1093    0.0000 </r>
       <r>    9.1093    0.0000 </r>
       <r>   13.4475    0.0000 </r>
      </set>
      <set comment="kpoint 14">
       <r>   -4.8463    1.0000 </r>
       <r>    0.3494    1.0000 </r>
       <r>    4.6370    1.0000 </r>
       <r>    4.6370    1.0000 </r>
       <r>    7.3132    0.0000 </r>
       <r>    9.1231    0.0000 </r>
       <r>    9.1231    0.0000 </r>
       <r>   13.4084    0.0000 </r>
      </set>
      <set comment="kpoint 15">
       <r>   -4.9397    1.0000 </r>
       <r>    0.5487    1.0000 </r>
       <r>    4.6679    1.0000 </r>
       <r>    4.6679    1.0000 </r>
       <r>    7.3484    0.0000 </r>
       <r>    9.1344    0.0000 </r>
       <r>    9.1344    0.0000 </r>
       <r>   13.3387    0.0000 </r>
      </set>
      <set comment="kpoint 16">
       <r>   -5.0312    1.0000 </r>
       <r>    0.7536    1.0000 </r>
       <r>    4.7010    1.0000 </r>
       <r>    4.7010    1.0000 </r>
       <r>    7.3859    0.0000 </r>
       <r>    9.1422    0.0000 </r>
       <r>    9.1422    0.0000 </r>
       <r>   13.2426    0.0000 </r>
      </set>
      <set comment="kpoint 17">
       <r>   -5.1206    1.0000 </r>
       <r>    0.9636    1.0000 </r>
       <r>    4.7361    1.0000 </r>
       <r>    4.7361    1.0000 </r>
       <r>    7.4255    0.0000 </r>
       <r>    9.1455    0.0000 </r>
       <r>    9.1455    0.0000 </r>
       <r>   13.0642    0.0000 </r>
      </set>
      <set comment="kpoint 18">
       <r>   -5.2074    1.0000 </r>
       <r>    1.1783    1.0000 </r>
       <r>    4.7733    1.0000 </r>
       <r>    4.7733    1.0000 </r>
       <r>    7.4673    0.0000 </r>
       <r>    9.1436    0.0000 </r>
       <r>    9.1436    0.0000 </r>
       <r>   12.8816    0.0000 </r>
      </set>
      <set comment="kpoint 19">
       <r>   -5.2914    1.0000 </r>
       <r>    1.3973    1.0000 </r>
       <r>    4.8124    1.0000 </r>
       <r>    4.8124    1.0000 </r>
       <r>    7.5110    0.0000 </r>
       <r>    9.1354    0.0000 </r>
       <r>    9.1354    0.0000 </r>
       <r>   12.6864    0.0000 </r>
      </set>
      <set comment="kpoint 20">
       <r>   -5.3724    1.0000 </r>
       <r>    1.6201    1.0000 </r>
       <r>    4.8533    1.0000 </r>
       <r>    4.8533    1.0000 </r>
       <r>    7.5566    0.0000 </r>
       <r>    9.1203    0.0000 </r>
       <r>    9.1203    0.0000 </r>
       <r>   12.4801    0.0000 </r>
      </set>
      <set comment="kpoint 21">
       <r>   -5.4501    1.0000 </r>
       <r>    1.8465    1.0000 </r>
       <r>    4.8960    1.0000 </r>
       <r>    4.8960    1.0000 </r>
       <r>    7.6037    0.0000 </r>
       <r>    9.0978    0.0000 </r>
       <r>    9.0978    0.0000 </r>
       <r>   12.2664    0.0000 </r>
      </set>
      <set comment="kpoint 22">
       <r>   -5.5245    1.0000 </r>
       <r>    2.0761    1.0000 </r>
       <r>    4.9403    1.0000 </r>
       <r>    4.9403    1.0000 </r>
       <r>    7.6522    0.0000 </r>
       <r>    9.0676    0.0000 </r>
       <r>    9.0676    0.0000 </r>
       <r>   12.0439    0.0000 </r>
      </set>
      <set comment="kpoint 23">
       <r>   -5.5954    1.0000 </r>
       <r>    2.3083    1.0000 </r>
       <r>    4.9860    1.0000 </r>
       <r>    4.9860    1.0000 </r>
       <r>    7.7020    0.0000 </r>
       <r>    9.0297    0.0000 </r>
       <r>    9.0297    0.0000 </r>
       <r>   11.8193    0.0000 </r>
      </set>
      <set comment="kpoint 24">
       <r>   -5.6627    1.0000 </r>
       <r>    2.5430    1.0000 </r>
       <r>    5.0329    1.0000 </r>
       <r>    5.0329    1.0000 </r>
       <r>    7.7526    0.0000 </r>
       <r>    8.9844    0.0000 </r>
       <r>    8.9844    0.0000 </r>
       <r>   11.5918    0.0000 </r>
      </set>
      <set comment="kpoint 25">
       <r>   -5.7263    1.0000 </r>
       <r>    2.7796    1.0000 </r>
       <r>    5.0809    1.0000 </r>
       <r>    5.0809    1.0000 </r>
       <r>    7.8037    0.0000 </r>
       <r>    8.9325    0.0000 </r>
       <r>    8.9325    0.0000 </r>
       <r>   11.3623    0.0000 </r>
      </set>
      <set comment="kpoint 26">
       <r>   -5.7861    1.0000 </r>
       <r>    3.0175    1.0000 </r>
       <r>    5.1297    1.0000 </r>
       <r>    5.1297    1.0000 </r>
       <r>    7.8551    0.0000 </r>
       <r>    8.8747    0.0000 </r>
       <r>    8.8747    0.0000 </r>
       <r>   11.1315    0.0000 </r>
      </set>
      <set comment="kpoint 27">
       <r>   -5.8420    1.0000 </r>
       <r>    3.2563    1.0000 </r>
       <r>    5.1789    1.0000 </r>
       <r>    5.1789    1.0000 </r>
       <r>    7.9062    0.0000 </r>
       <r>    8.8121    0.0000 </r>
       <r>    8.8121    0.0000 </r>
       <r>   10.9001    0.0000 </r>
      </set>
      <set comment="kpoint 28">
       <r>   -5.8939    1.0000 </r>
       <r>    3.4953    1.0000 </r>
       <r>    5.2282    1.0000 </r>
       <r>    5.2282    1.0000 </r>
       <r>    7.9566    0.0000 </r>
       <r>    8.7461    0.0000 </r>
       <r>    8.7461    0.0000 </r>
       <r>   10.6690    0.0000 </r>
      </set>
      <set comment="kpoint 29">
       <r>   -5.9419    1.0000 </r>
       <r>    3.7335    1.0000 </r>
       <r>    5.2772    1.0000 </r>
       <r>    5.2772    1.0000 </r>
       <r>    8.0055    0.0000 </r>
       <r>    8.6781    0.0000 </r>
       <r>    8.6781    0.0000 </r>
       <r>   10.4388    0.0000 </r>
      </set>
      <set comment="kpoint 30">
       <r>   -5.9858    1.0000 </r>
       <r>    3.9701    1.0000 </r>
       <r>    5.3254    1.0000 </r>
       <r>    5.3254    1.0000 </r>
       <r>    8.0523    0.0000 </r>
       <r>    8.6093    0.0000 </r>
       <r>    8.6093    0.0000 </r>
       <r>   10.2109    0.0000 </r>
      </set>
      <set comment="kpoint 31">
       <r>   -6.0257    1.0000 </r>
       <r>    4.2037    1.0000 </r>
       <r>    5.3723    1.0000 </r>
       <r>    5.3723    1.0000 </r>
       <r>    8.0960    0.0000 </r>
       <r>    8.5411    0.0000 </r>
       <r>    8.5411    0.0000 </r>
       <r>    9.9867    0.0000 </r>
      </set>
      <set comment="kpoint 32">
       <r>   -6.0614    1.0000 </r>
       <r>    4.4326    1.0000 </r>
       <r>    5.4172    1.0000 </r>
       <r>    5.4172    1.0000 </r>
       <r>    8.1357    0.0000 </r>
       <r>    8.4752    0.0000 </r>
       <r>    8.4752    0.0000 </r>
       <r>    9.7684    0.0000 </r>
      </set>
      <set comment="kpoint 33">
       <r>   -6.0931    1.0000 </r>
       <r>    4.6546    1.0000 </r>
       <r>    5.4595    1.0000 </r>
       <r>    5.4595    1.0000 </r>
       <r>    8.1699    0.0000 </r>
       <r>    8.4127    0.0000 </r>
       <r>    8.4127    0.0000 </r>
       <r>    9.5587    0.0000 </r>
      </set>
      <set comment="kpoint 34">
       <r>   -6.1205    1.0000 </r>
       <r>    4.8667    1.0000 </r>
       <r>    5.4985    1.0000 </r>
       <r>    5.4985    1.0000 </r>
       <r>    8.1970    0.0000 </r>
       <r>    8.3551    0.0000 </r>
       <r>    8.3551    0.0000 </r>
       <r>    9.3616    0.0000 </r>
      </set>
      <set comment="kpoint 35">
       <r>   -6.1438    1.0000 </r>
       <r>    5.0651    1.0000 </r>
       <r>    5.5333    1.0000 </r>
       <r>    5.5333    1.0000 </r>
       <r>    8.2149    0.0000 </r>
       <r>    8.3036    0.0000 </r>
       <r>    8.3036    0.0000 </r>
       <r>    9.1825    0.0000 </r>
      </set>
      <set comment="kpoint 36">
       <r>   -6.1628    1.0000 </r>
       <r>    5.2444    1.0000 </r>
       <r>    5.5632    1.0000 </r>
       <r>    5.5632    1.0000 </r>
       <r>    8.2214    0.0000 </r>
       <r>    8.2595    0.0000 </r>
       <r>    8.2595    0.0000 </r>
       <r>    9.0281    0.0000 </r>
      </set>
      <set comment="kpoint 37">
       <r>   -6.1776    1.0000 </r>
       <r>    5.3978    1.0000 </r>
       <r>    5.5874    1.0000 </r>
       <r>    5.5874    1.0000 </r>
       <r>    8.2155    0.0000 </r>
       <r>    8.2240    0.0000 </r>
       <r>    8.2240    0.0000 </r>
       <r>    8.9057    0.0000 </r>
      </set>
      <set comment="kpoint 38">
       <r>   -6.1882    1.0000 </r>
       <r>    5.5171    1.0000 </r>
       <r>    5.6052    1.0000 </r>
       <r>    5.6052    1.0000 </r>
       <r>    8.1978    0.0000 </r>
       <r>    8.1978    0.0000 </r>
       <r>    8.2000    0.0000 </r>
       <r>    8.8203    0.0000 </r>
      </set>
      <set comment="kpoint 39">
       <r>   -6.1946    1.0000 </r>
       <r>    5.5935    1.0000 </r>
       <r>    5.6162    1.0000 </r>
       <r>    5.6162    1.0000 </r>
       <r>    8.1818    0.0000 </r>
       <r>    8.1818    0.0000 </r>
       <r>    8.1835    0.0000 </r>
       <r>    8.7716    0.0000 </r>
      </set>
      <set comment="kpoint 40">
       <r>   -6.1967    1.0000 </r>
       <r>    5.6198    1.0000 </r>
       <r>    5.6198    1.0000 </r>
       <r>    5.6198    1.0000 </r>
       <r>    8.1765    0.0000 </r>
       <r>    8.1765    0.0000 </r>
       <r>    8.1765    0.0000 </r>
       <r>    8.7561    0.0000 </r>
      </set>
      <set comment="kpoint 41">
       <r>   -6.1967    1.0000 </r>
       <r>    5.6198    1.0000 </r>
       <r>    5.6198    1.0000 </r>
       <r>    5.6198    1.0000 </r>
       <r>    8.1765    0.0000 </r>
       <r>    8.1765    0.0000 </r>
       <r>    8.1765    0.0000 </r>
       <r>    8.7561    0.0000 </r>
      </set>
      <set comment="kpoint 42">
       <r>   -6.1939    1.0000 </r>
       <r>    5.5992    1.0000 </r>
       <r>    5.6077    1.0000 </r>
       <r>    5.6077    1.0000 </r>
       <r>    8.1694    0.0000 </r>
       <r>    8.1921    0.0000 </r>
       <r>    8.1921    0.0000 </r>
       <r>    8.7763    0.0000 </r>
      </set>
      <set comment="kpoint 43">
       <r>   -6.1854    1.0000 </r>
       <r>    5.5388    1.0000 </r>
       <r>    5.5720    1.0000 </r>
       <r>    5.5720    1.0000 </r>
       <r>    8.1484    0.0000 </r>
       <r>    8.2383    0.0000 </r>
       <r>    8.2383    0.0000 </r>
       <r>    8.8354    0.0000 </r>
      </set>
      <set comment="kpoint 44">
       <r>   -6.1713    1.0000 </r>
       <r>    5.4431    1.0000 </r>
       <r>    5.5152    1.0000 </r>
       <r>    5.5152    1.0000 </r>
       <r>    8.1142    0.0000 </r>
       <r>    8.3124    0.0000 </r>
       <r>    8.3124    0.0000 </r>
       <r>    8.9283    0.0000 </r>
      </set>
      <set comment="kpoint 45">
       <r>   -6.1515    1.0000 </r>
       <r>    5.3176    1.0000 </r>
       <r>    5.4409    1.0000 </r>
       <r>    5.4409    1.0000 </r>
       <r>    8.0678    0.0000 </r>
       <r>    8.4110    0.0000 </r>
       <r>    8.4110    0.0000 </r>
       <r>    9.0482    0.0000 </r>
      </set>
      <set comment="kpoint 46">
       <r>   -6.1260    1.0000 </r>
       <r>    5.1683    1.0000 </r>
       <r>    5.3526    1.0000 </r>
       <r>    5.3526    1.0000 </r>
       <r>    8.0105    0.0000 </r>
       <r>    8.5306    0.0000 </r>
       <r>    8.5306    0.0000 </r>
       <r>    9.1875    0.0000 </r>
      </set>
      <set comment="kpoint 47">
       <r>   -6.0950    1.0000 </r>
       <r>    5.0004    1.0000 </r>
       <r>    5.2537    1.0000 </r>
       <r>    5.2537    1.0000 </r>
       <r>    7.9438    0.0000 </r>
       <r>    8.6677    0.0000 </r>
       <r>    8.6677    0.0000 </r>
       <r>    9.3382    0.0000 </r>
      </set>
      <set comment="kpoint 48">
       <r>   -6.0583    1.0000 </r>
       <r>    4.8182    1.0000 </r>
       <r>    5.1471    1.0000 </r>
       <r>    5.1471    1.0000 </r>
       <r>    7.8691    0.0000 </r>
       <r>    8.8192    0.0000 </r>
       <r>    8.8192    0.0000 </r>
       <r>    9.4919    0.0000 </r>
      </set>
      <set comment="kpoint 49">
       <r>   -6.0160    1.0000 </r>
       <r>    4.6250    1.0000 </r>
       <r>    5.0354    1.0000 </r>
       <r>    5.0354    1.0000 </r>
       <r>    7.7881    0.0000 </r>
       <r>    8.9827    0.0000 </r>
       <r>    8.9827    0.0000 </r>
       <r>    9.6387    0.0000 </r>
      </set>
      <set comment="kpoint 50">
       <r>   -5.9682    1.0000 </r>
       <r>    4.4234    1.0000 </r>
       <r>    4.9204    1.0000 </r>
       <r>    4.9204    1.0000 </r>
       <r>    7.7021    0.0000 </r>
       <r>    9.1562    0.0000 </r>
       <r>    9.1562    0.0000 </r>
       <r>    9.7668    0.0000 </r>
      </set>
      <set comment="kpoint 51">
       <r>   -5.9147    1.0000 </r>
       <r>    4.2154    1.0000 </r>
       <r>    4.8036    1.0000 </r>
       <r>    4.8036    1.0000 </r>
       <r>    7.6125    0.0000 </r>
       <r>    9.3380    0.0000 </r>
       <r>    9.3380    0.0000 </r>
       <r>    9.8618    0.0000 </r>
      </set>
      <set comment="kpoint 52">
       <r>   -5.8557    1.0000 </r>
       <r>    4.0024    1.0000 </r>
       <r>    4.6865    1.0000 </r>
       <r>    4.6865    1.0000 </r>
       <r>    7.5206    0.0000 </r>
       <r>    9.5268    0.0000 </r>
       <r>    9.5268    0.0000 </r>
       <r>    9.9091    0.0000 </r>
      </set>
      <set comment="kpoint 53">
       <r>   -5.7912    1.0000 </r>
       <r>    3.7856    1.0000 </r>
       <r>    4.5698    1.0000 </r>
       <r>    4.5698    1.0000 </r>
       <r>    7.4274    0.0000 </r>
       <r>    9.7218    0.0000 </r>
       <r>    9.7218    0.0000 </r>
       <r>    9.8988    0.0000 </r>
      </set>
      <set comment="kpoint 54">
       <r>   -5.7211    1.0000 </r>
       <r>    3.5659    1.0000 </r>
       <r>    4.4545    1.0000 </r>
       <r>    4.4545    1.0000 </r>
       <r>    7.3340    0.0000 </r>
       <r>    9.8320    0.0000 </r>
       <r>    9.9219    0.0000 </r>
       <r>    9.9219    0.0000 </r>
      </set>
      <set comment="kpoint 55">
       <r>   -5.6456    1.0000 </r>
       <r>    3.3439    1.0000 </r>
       <r>    4.3411    1.0000 </r>
       <r>    4.3411    1.0000 </r>
       <r>    7.2412    0.0000 </r>
       <r>    9.7186    0.0000 </r>
       <r>   10.1264    0.0000 </r>
       <r>   10.1264    0.0000 </r>
      </set>
      <set comment="kpoint 56">
       <r>   -5.5647    1.0000 </r>
       <r>    3.1202    1.0000 </r>
       <r>    4.2301    1.0000 </r>
       <r>    4.2301    1.0000 </r>
       <r>    7.1497    0.0000 </r>
       <r>    9.5721    0.0000 </r>
       <r>   10.3348    0.0000 </r>
       <r>   10.3348    0.0000 </r>
      </set>
      <set comment="kpoint 57">
       <r>   -5.4783    1.0000 </r>
       <r>    2.8951    1.0000 </r>
       <r>    4.1220    1.0000 </r>
       <r>    4.1220    1.0000 </r>
       <r>    7.0602    0.0000 </r>
       <r>    9.4043    0.0000 </r>
       <r>   10.5467    0.0000 </r>
       <r>   10.5467    0.0000 </r>
      </set>
      <set comment="kpoint 58">
       <r>   -5.3866    1.0000 </r>
       <r>    2.6691    1.0000 </r>
       <r>    4.0171    1.0000 </r>
       <r>    4.0171    1.0000 </r>
       <r>    6.9734    0.0000 </r>
       <r>    9.2242    0.0000 </r>
       <r>   10.7619    0.0000 </r>
       <r>   10.7619    0.0000 </r>
      </set>
      <set comment="kpoint 59">
       <r>   -5.2895    1.0000 </r>
       <r>    2.4423    1.0000 </r>
       <r>    3.9156    1.0000 </r>
       <r>    3.9156    1.0000 </r>
       <r>    6.8897    0.0000 </r>
       <r>    9.0379    0.0000 </r>
       <r>   10.9796    0.0000 </r>
       <r>   10.9796    0.0000 </r>
      </set>
      <set comment="kpoint 60">
       <r>   -5.1871    1.0000 </r>
       <r>    2.2152    1.0000 </r>
       <r>    3.8179    1.0000 </r>
       <r>    3.8179    1.0000 </r>
       <r>    6.8096    0.0000 </r>
       <r>    8.8497    0.0000 </r>
       <r>   11.1997    0.0000 </r>
       <r>   11.1997    0.0000 </r>
      </set>
      <set comment="kpoint 61">
       <r>   -5.0795    1.0000 </r>
       <r>    1.9877    1.0000 </r>
       <r>    3.7241    1.0000 </r>
       <r>    3.7241    1.0000 </r>
       <r>    6.7335    0.0000 </r>
       <r>    8.6623    0.0000 </r>
       <r>   11.4221    0.0000 </r>
       <r>   11.4221    0.0000 </r>
      </set>
      <set comment="kpoint 62">
       <r>   -4.9666    1.0000 </r>
       <r>    1.7603    1.0000 </r>
       <r>    3.6344    1.0000 </r>
       <r>    3.6344    1.0000 </r>
       <r>    6.6617    0.0000 </r>
       <r>    8.4780    0.0000 </r>
       <r>   11.6465    0.0000 </r>
       <r>   11.6465    0.0000 </r>
      </set>
      <set comment="kpoint 63">
       <r>   -4.8487    1.0000 </r>
       <r>    1.5331    1.0000 </r>
       <r>    3.5490    1.0000 </r>
       <r>    3.5490    1.0000 </r>
       <r>    6.5945    0.0000 </r>
       <r>    8.2982    0.0000 </r>
       <r>   11.8727    0.0000 </r>
       <r>   11.8727    0.0000 </r>
      </set>
      <set comment="kpoint 64">
       <r>   -4.7256    1.0000 </r>
       <r>    1.3061    1.0000 </r>
       <r>    3.4679    1.0000 </r>
       <r>    3.4679    1.0000 </r>
       <r>    6.5323    0.0000 </r>
       <r>    8.1239    0.0000 </r>
       <r>   12.1007    0.0000 </r>
       <r>   12.1007    0.0000 </r>
      </set>
      <set comment="kpoint 65">
       <r>   -4.5975    1.0000 </r>
       <r>    1.0798    1.0000 </r>
       <r>    3.3913    1.0000 </r>
       <r>    3.3913    1.0000 </r>
       <r>    6.4753    0.0000 </r>
       <r>    7.9559    0.0000 </r>
       <r>   12.3303    0.0000 </r>
       <r>   12.3303    0.0000 </r>
      </set>
      <set comment="kpoint 66">
       <r>   -4.4644    1.0000 </r>
       <r>    0.8541    1.0000 </r>
       <r>    3.3194    1.0000 </r>
       <r>    3.3194    1.0000 </r>
       <r>    6.4237    0.0000 </r>
       <r>    7.7949    0.0000 </r>
       <r>   12.5615    0.0000 </r>
       <r>   12.5616    0.0000 </r>
      </set>
      <set comment="kpoint 67">
       <r>   -4.3265    1.0000 </r>
       <r>    0.6293    1.0000 </r>
       <r>    3.2520    1.0000 </r>
       <r>    3.2520    1.0000 </r>
       <r>    6.3775    0.0000 </r>
       <r>    7.6408    0.0000 </r>
       <r>   12.7940    0.0000 </r>
       <r>   12.7940    0.0000 </r>
      </set>
      <set comment="kpoint 68">
       <r>   -4.1837    1.0000 </r>
       <r>    0.4056    1.0000 </r>
       <r>    3.1894    1.0000 </r>
       <r>    3.1894    1.0000 </r>
       <r>    6.3375    0.0000 </r>
       <r>    7.4949    0.0000 </r>
       <r>   13.0280    0.0000 </r>
       <r>   13.0280    0.0000 </r>
      </set>
      <set comment="kpoint 69">
       <r>   -4.0361    1.0000 </r>
       <r>    0.1832    1.0000 </r>
       <r>    3.1316    1.0000 </r>
       <r>    3.1316    1.0000 </r>
       <r>    6.3034    0.0000 </r>
       <r>    7.3567    0.0000 </r>
       <r>   13.2632    0.0000 </r>
       <r>   13.2632    0.0000 </r>
      </set>
      <set comment="kpoint 70">
       <r>   -3.8839    1.0000 </r>
       <r>   -0.0378    1.0000 </r>
       <r>    3.0787    1.0000 </r>
       <r>    3.0787    1.0000 </r>
       <r>    6.2756    0.0000 </r>
       <r>    7.2265    0.0000 </r>
       <r>   13.4995    0.0000 </r>
       <r>   13.4995    0.0000 </r>
      </set>
      <set comment="kpoint 71">
       <r>   -3.7271    1.0000 </r>
       <r>   -0.2571    1.0000 </r>
       <r>    3.0307    1.0000 </r>
       <r>    3.0307    1.0000 </r>
       <r>    6.2541    0.0000 </r>
       <r>    7.1043    0.0000 </r>
       <r>   13.7366    0.0000 </r>
       <r>   13.7366    0.0000 </r>
      </set>
      <set comment="kpoint 72">
       <r>   -3.5659    1.0000 </r>
       <r>   -0.4746    1.0000 </r>
       <r>    2.9876    1.0000 </r>
       <r>    2.9876    1.0000 </r>
       <r>    6.2392    0.0000 </r>
       <r>    6.9904    0.0000 </r>
       <r>   13.9743    0.0000 </r>
       <r>   13.9743    0.0000 </r>
      </set>
      <set comment="kpoint 73">
       <r>   -3.4002    1.0000 </r>
       <r>   -0.6901    1.0000 </r>
       <r>    2.9496    1.0000 </r>
       <r>    2.9496    1.0000 </r>
       <r>    6.2309    0.0000 </r>
       <r>    6.8847    0.0000 </r>
       <r>   14.2122    0.0000 </r>
       <r>   14.2122    0.0000 </r>
      </set>
      <set comment="kpoint 74">
       <r>   -3.2303    1.0000 </r>
       <r>   -0.9034    1.0000 </r>
       <r>    2.9165    1.0000 </r>
       <r>    2.9165    1.0000 </r>
       <r>    6.2294    0.0000 </r>
       <r>    6.7872    0.0000 </r>
       <r>   14.4494    0.0000 </r>
       <r>   14.4494    0.0000 </r>
      </set>
      <set comment="kpoint 75">
       <r>   -3.0561    1.0000 </r>
       <r>   -1.1144    1.0000 </r>
       <r>    2.8885    1.0000 </r>
       <r>    2.8885    1.0000 </r>
       <r>    6.2349    0.0000 </r>
       <r>    6.6978    0.0000 </r>
       <r>   14.6846    0.0000 </r>
       <r>   14.6846    0.0000 </r>
      </set>
      <set comment="kpoint 76">
       <r>   -2.8780    1.0000 </r>
       <r>   -1.3228    1.0000 </r>
       <r>    2.8656    1.0000 </r>
       <r>    2.8656    1.0000 </r>
       <r>    6.2474    0.0000 </r>
       <r>    6.6165    0.0000 </r>
       <r>   14.9155    0.0000 </r>
       <r>   14.9155    0.0000 </r>
      </set>
      <set comment="kpoint 77">
       <r>   -2.6959    1.0000 </r>
       <r>   -1.5284    1.0000 </r>
       <r>    2.8477    1.0000 </r>
       <r>    2.8477    1.0000 </r>
       <r>    6.2672    0.0000 </r>
       <r>    6.5432    0.0000 </r>
       <r>   15.1370    0.0000 </r>
       <r>   15.1370    0.0000 </r>
      </set>
      <set comment="kpoint 78">
       <r>   -2.5100    1.0000 </r>
       <r>   -1.7312    1.0000 </r>
       <r>    2.8349    1.0000 </r>
       <r>    2.8349    1.0000 </r>
       <r>    6.2942    0.0000 </r>
       <r>    6.4779    0.0000 </r>
       <r>   15.3384    0.0000 </r>
       <r>   15.3388    0.0000 </r>
      </set>
      <set comment="kpoint 79">
       <r>   -2.3204    1.0000 </r>
       <r>   -1.9309    1.0000 </r>
       <r>    2.8273    1.0000 </r>
       <r>    2.8273    1.0000 </r>
       <r>    6.3287    0.0000 </r>
       <r>    6.4204    0.0000 </r>
       <r>   15.4951    0.0000 </r>
       <r>   15.4981    0.0000 </r>
      </set>
      <set comment="kpoint 80">
       <r>   -2.1273    1.0000 </r>
       <r>   -2.1273    1.0000 </r>
       <r>    2.8247    1.0000 </r>
       <r>    2.8247    1.0000 </r>
       <r>    6.3707    0.0000 </r>
       <r>    6.3707    0.0000 </r>
       <r>   15.5592    0.0000 </r>
       <r>   15.5626    0.0000 </r>
      </set>
      <set comment="kpoint 81">
       <r>   -2.1273    1.0000 </r>
       <r>   -2.1273    1.0000 </r>
       <r>    2.8247    1.0000 </r>
       <r>    2.8247    1.0000 </r>
       <r>    6.3707    0.0000 </r>
       <r>    6.3707    0.0000 </r>
       <r>   15.5586    0.0000 </r>
       <r>   15.5609    0.0000 </r>
      </set>
      <set comment="kpoint 82">
       <r>   -2.1275    1.0000 </r>
       <r>   -2.1269    1.0000 </r>
       <r>    2.8223    1.0000 </r>
       <r>    2.8250    1.0000 </r>
       <r>    6.3711    0.0000 </r>
       <r>    6.3743    0.0000 </r>
       <r>   15.5548    0.0000 </r>
       <r>   15.5575    0.0000 </r>
      </set>
      <set comment="kpoint 83">
       <r>   -2.1280    1.0000 </r>
       <r>   -2.1258    1.0000 </r>
       <r>    2.8151    1.0000 </r>
       <r>    2.8258    1.0000 </r>
       <r>    6.3721    0.0000 </r>
       <r>    6.3851    0.0000 </r>
       <r>   15.5432    0.0000 </r>
       <r>   15.5532    0.0000 </r>
      </set>
      <set comment="kpoint 84">
       <r>   -2.1287    1.0000 </r>
       <r>   -2.1239    1.0000 </r>
       <r>    2.8032    1.0000 </r>
       <r>    2.8272    1.0000 </r>
       <r>    6.3737    0.0000 </r>
       <r>    6.4029    0.0000 </r>
       <r>   15.5241    0.0000 </r>
       <r>   15.5391    0.0000 </r>
      </set>
      <set comment="kpoint 85">
       <r>   -2.1298    1.0000 </r>
       <r>   -2.1212    1.0000 </r>
       <r>    2.7867    1.0000 </r>
       <r>    2.8292    1.0000 </r>
       <r>    6.3760    0.0000 </r>
       <r>    6.4277    0.0000 </r>
       <r>   15.4982    0.0000 </r>
       <r>   15.5249    0.0000 </r>
      </set>
      <set comment="kpoint 86">
       <r>   -2.1312    1.0000 </r>
       <r>   -2.1177    1.0000 </r>
       <r>    2.7660    1.0000 </r>
       <r>    2.8318    1.0000 </r>
       <r>    6.3789    0.0000 </r>
       <r>    6.4591    0.0000 </r>
       <r>   15.4649    0.0000 </r>
       <r>   15.5054    0.0000 </r>
      </set>
      <set comment="kpoint 87">
       <r>   -2.1330    1.0000 </r>
       <r>   -2.1135    1.0000 </r>
       <r>    2.7411    1.0000 </r>
       <r>    2.8349    1.0000 </r>
       <r>    6.3825    0.0000 </r>
       <r>    6.4970    0.0000 </r>
       <r>   15.4319    0.0000 </r>
       <r>   15.4862    0.0000 </r>
      </set>
      <set comment="kpoint 88">
       <r>   -2.1351    1.0000 </r>
       <r>   -2.1085    1.0000 </r>
       <r>    2.7126    1.0000 </r>
       <r>    2.8386    1.0000 </r>
       <r>    6.3867    0.0000 </r>
       <r>    6.5410    0.0000 </r>
       <r>   15.3825    0.0000 </r>
       <r>   15.4572    0.0000 </r>
      </set>
      <set comment="kpoint 89">
       <r>   -2.1376    1.0000 </r>
       <r>   -2.1028    1.0000 </r>
       <r>    2.6805    1.0000 </r>
       <r>    2.8428    1.0000 </r>
       <r>    6.3916    0.0000 </r>
       <r>    6.5910    0.0000 </r>
       <r>   15.3324    0.0000 </r>
       <r>   15.4267    0.0000 </r>
      </set>
      <set comment="kpoint 90">
       <r>   -2.1404    1.0000 </r>
       <r>   -2.0962    1.0000 </r>
       <r>    2.6454    1.0000 </r>
       <r>    2.8476    1.0000 </r>
       <r>    6.3971    0.0000 </r>
       <r>    6.6464    0.0000 </r>
       <r>   15.2780    0.0000 </r>
       <r>   15.3952    0.0000 </r>
      </set>
      <set comment="kpoint 91">
       <r>   -2.1437    1.0000 </r>
       <r>   -2.0889    1.0000 </r>
       <r>    2.6074    1.0000 </r>
       <r>    2.8530    1.0000 </r>
       <r>    6.4033    0.0000 </r>
       <r>    6.7072    0.0000 </r>
       <r>   15.2199    0.0000 </r>
       <r>   15.3579    0.0000 </r>
      </set>
      <set comment="kpoint 92">
       <r>   -2.1473    1.0000 </r>
       <r>   -2.0809    1.0000 </r>
       <r>    2.5671    1.0000 </r>
       <r>    2.8589    1.0000 </r>
       <r>    6.4101    0.0000 </r>
       <r>    6.7728    0.0000 </r>
       <r>   15.1611    0.0000 </r>
       <r>   15.3285    0.0000 </r>
      </set>
      <set comment="kpoint 93">
       <r>   -2.1514    1.0000 </r>
       <r>   -2.0721    1.0000 </r>
       <r>    2.5246    1.0000 </r>
       <r>    2.8654    1.0000 </r>
       <r>    6.4176    0.0000 </r>
       <r>    6.8429    0.0000 </r>
       <r>   15.0940    0.0000 </r>
       <r>   15.2911    0.0000 </r>
      </set>
      <set comment="kpoint 94">
       <r>   -2.1560    1.0000 </r>
       <r>   -2.0625    1.0000 </r>
       <r>    2.4804    1.0000 </r>
       <r>    2.8724    1.0000 </r>
       <r>    6.4257    0.0000 </r>
       <r>    6.9174    0.0000 </r>
       <r>   15.0282    0.0000 </r>
       <r>   15.2654    0.0000 </r>
      </set>
      <set comment="kpoint 95">
       <r>   -2.1611    1.0000 </r>
       <r>   -2.0521    1.0000 </r>
       <r>    2.4347    1.0000 </r>
       <r>    2.8800    1.0000 </r>
       <r>    6.4345    0.0000 </r>
       <r>    6.9959    0.0000 </r>
       <r>   14.9579    0.0000 </r>
       <r>   15.1879    0.0000 </r>
      </set>
      <set comment="kpoint 96">
       <r>   -2.1666    1.0000 </r>
       <r>   -2.0410    1.0000 </r>
       <r>    2.3878    1.0000 </r>
       <r>    2.8882    1.0000 </r>
       <r>    6.4438    0.0000 </r>
       <r>    7.0780    0.0000 </r>
       <r>   14.8926    0.0000 </r>
       <r>   15.2584    0.0000 </r>
      </set>
      <set comment="kpoint 97">
       <r>   -2.1728    1.0000 </r>
       <r>   -2.0291    1.0000 </r>
       <r>    2.3400    1.0000 </r>
       <r>    2.8969    1.0000 </r>
       <r>    6.4539    0.0000 </r>
       <r>    7.1637    0.0000 </r>
       <r>   14.8175    0.0000 </r>
       <r>   15.0926    0.0000 </r>
      </set>
      <set comment="kpoint 98">
       <r>   -2.1794    1.0000 </r>
       <r>   -2.0164    1.0000 </r>
       <r>    2.2915    1.0000 </r>
       <r>    2.9061    1.0000 </r>
       <r>    6.4645    0.0000 </r>
       <r>    7.2526    0.0000 </r>
       <r>   14.7398    0.0000 </r>
       <r>   15.0465    0.0000 </r>
      </set>
      <set comment="kpoint 99">
       <r>   -2.1868    1.0000 </r>
       <r>   -2.0030    1.0000 </r>
       <r>    2.2427    1.0000 </r>
       <r>    2.9160    1.0000 </r>
       <r>    6.4758    0.0000 </r>
       <r>    7.3446    0.0000 </r>
       <r>   14.6652    0.0000 </r>
       <r>   14.9818    0.0000 </r>
      </set>
      <set comment="kpoint 100">
       <r>   -2.1947    1.0000 </r>
       <r>   -1.9888    1.0000 </r>
       <r>    2.1937    1.0000 </r>
       <r>    2.9263    1.0000 </r>
       <r>    6.4878    0.0000 </r>
       <r>    7.4394    0.0000 </r>
       <r>   14.5881    0.0000 </r>
       <r>   14.9273    0.0000 </r>
      </set>
      <set comment="kpoint 101">
       <r>   -2.2033    1.0000 </r>
       <r>   -1.9738    1.0000 </r>
       <r>    2.1447    1.0000 </r>
       <r>    2.9372    1.0000 </r>
       <r>    6.5003    0.0000 </r>
       <r>    7.5369    0.0000 </r>
       <r>   14.5101    0.0000 </r>
       <r>   15.0318    0.0000 </r>
      </set>
      <set comment="kpoint 102">
       <r>   -2.2127    1.0000 </r>
       <r>   -1.9581    1.0000 </r>
       <r>    2.0960    1.0000 </r>
       <r>    2.9486    1.0000 </r>
       <r>    6.5135    0.0000 </r>
       <r>    7.6368    0.0000 </r>
       <r>   14.4319    0.0000 </r>
       <r>   14.8753    0.0000 </r>
      </set>
      <set comment="kpoint 103">
       <r>   -2.2228    1.0000 </r>
       <r>   -1.9416    1.0000 </r>
       <r>    2.0477    1.0000 </r>
       <r>    2.9606    1.0000 </r>
       <r>    6.5273    0.0000 </r>
       <r>    7.7391    0.0000 </r>
       <r>   14.3540    0.0000 </r>
       <r>   14.7705    0.0000 </r>
      </set>
      <set comment="kpoint 104">
       <r>   -2.2337    1.0000 </r>
       <r>   -1.9244    1.0000 </r>
       <r>    2.0000    1.0000 </r>
       <r>    2.9731    1.0000 </r>
       <r>    6.5418    0.0000 </r>
       <r>    7.8436    0.0000 </r>
       <r>   14.2762    0.0000 </r>
       <r>   14.7616    0.0000 </r>
      </set>
      <set comment="kpoint 105">
       <r>   -2.2454    1.0000 </r>
       <r>   -1.9064    1.0000 </r>
       <r>    1.9530    1.0000 </r>
       <r>    2.9862    1.0000 </r>
       <r>    6.5568    0.0000 </r>
       <r>    7.9501    0.0000 </r>
       <r>   14.1948    0.0000 </r>
       <r>   14.6413    0.0000 </r>
      </set>
      <set comment="kpoint 106">
       <r>   -2.2580    1.0000 </r>
       <r>   -1.8876    1.0000 </r>
       <r>    1.9070    1.0000 </r>
       <r>    2.9998    1.0000 </r>
       <r>    6.5724    0.0000 </r>
       <r>    8.0586    0.0000 </r>
       <r>   14.1153    0.0000 </r>
       <r>   14.6802    0.0000 </r>
      </set>
      <set comment="kpoint 107">
       <r>   -2.2714    1.0000 </r>
       <r>   -1.8680    1.0000 </r>
       <r>    1.8619    1.0000 </r>
       <r>    3.0139    1.0000 </r>
       <r>    6.5887    0.0000 </r>
       <r>    8.1689    0.0000 </r>
       <r>   14.0361    0.0000 </r>
       <r>   14.5257    0.0000 </r>
      </set>
      <set comment="kpoint 108">
       <r>   -2.2859    1.0000 </r>
       <r>   -1.8477    1.0000 </r>
       <r>    1.8181    1.0000 </r>
       <r>    3.0285    1.0000 </r>
       <r>    6.6056    0.0000 </r>
       <r>    8.2810    0.0000 </r>
       <r>   13.9560    0.0000 </r>
       <r>   14.4647    0.0000 </r>
      </set>
      <set comment="kpoint 109">
       <r>   -2.3012    1.0000 </r>
       <r>   -1.8267    1.0000 </r>
       <r>    1.7755    1.0000 </r>
       <r>    3.0436    1.0000 </r>
       <r>    6.6230    0.0000 </r>
       <r>    8.3947    0.0000 </r>
       <r>   13.8969    0.0000 </r>
       <r>   14.4247    0.0000 </r>
      </set>
      <set comment="kpoint 110">
       <r>   -2.3176    1.0000 </r>
       <r>   -1.8049    1.0000 </r>
       <r>    1.7344    1.0000 </r>
       <r>    3.0593    1.0000 </r>
       <r>    6.6411    0.0000 </r>
       <r>    8.5100    0.0000 </r>
       <r>   13.7949    0.0000 </r>
       <r>   14.3341    0.0000 </r>
      </set>
      <set comment="kpoint 111">
       <r>   -2.3351    1.0000 </r>
       <r>   -1.7823    1.0000 </r>
       <r>    1.6947    1.0000 </r>
       <r>    3.0755    1.0000 </r>
       <r>    6.6598    0.0000 </r>
       <r>    8.6268    0.0000 </r>
       <r>   13.7147    0.0000 </r>
       <r>   14.2882    0.0000 </r>
      </set>
      <set comment="kpoint 112">
       <r>   -2.3536    1.0000 </r>
       <r>   -1.7589    1.0000 </r>
       <r>    1.6566    1.0000 </r>
       <r>    3.0922    1.0000 </r>
       <r>    6.6790    0.0000 </r>
       <r>    8.7449    0.0000 </r>
       <r>   13.6352    0.0000 </r>
       <r>   14.2106    0.0000 </r>
      </set>
      <set comment="kpoint 113">
       <r>   -2.3731    1.0000 </r>
       <r>   -1.7348    1.0000 </r>
       <r>    1.6202    1.0000 </r>
       <r>    3.1093    1.0000 </r>
       <r>    6.6988    0.0000 </r>
       <r>    8.8644    0.0000 </r>
       <r>   13.5551    0.0000 </r>
       <r>   14.1263    0.0000 </r>
      </set>
      <set comment="kpoint 114">
       <r>   -2.3938    1.0000 </r>
       <r>   -1.7100    1.0000 </r>
       <r>    1.5856    1.0000 </r>
       <r>    3.1270    1.0000 </r>
       <r>    6.7192    0.0000 </r>
       <r>    8.9851    0.0000 </r>
       <r>   13.4745    0.0000 </r>
       <r>   14.0399    0.0000 </r>
      </set>
      <set comment="kpoint 115">
       <r>   -2.4156    1.0000 </r>
       <r>   -1.6843    1.0000 </r>
       <r>    1.5528    1.0000 </r>
       <r>    3.1452    1.0000 </r>
       <r>    6.7402    0.0000 </r>
       <r>    9.1071    0.0000 </r>
       <r>   13.3954    0.0000 </r>
       <r>   13.9579    0.0000 </r>
      </set>
      <set comment="kpoint 116">
       <r>   -2.4386    1.0000 </r>
       <r>   -1.6580    1.0000 </r>
       <r>    1.5218    1.0000 </r>
       <r>    3.1639    1.0000 </r>
       <r>    6.7618    0.0000 </r>
       <r>    9.2301    0.0000 </r>
       <r>   13.3161    0.0000 </r>
       <r>   13.8745    0.0000 </r>
      </set>
      <set comment="kpoint 117">
       <r>   -2.4627    1.0000 </r>
       <r>   -1.6308    1.0000 </r>
       <r>    1.4928    1.0000 </r>
       <r>    3.1830    1.0000 </r>
       <r>    6.7839    0.0000 </r>
       <r>    9.3542    0.0000 </r>
       <r>   13.2369    0.0000 </r>
       <r>   13.8034    0.0000 </r>
      </set>
      <set comment="kpoint 118">
       <r>   -2.4880    1.0000 </r>
       <r>   -1.6029    1.0000 </r>
       <r>    1.4658    1.0000 </r>
       <r>    3.2026    1.0000 </r>
       <r>    6.8065    0.0000 </r>
       <r>    9.4793    0.0000 </r>
       <r>   13.1639    0.0000 </r>
       <r>   13.7062    0.0000 </r>
      </set>
      <set comment="kpoint 119">
       <r>   -2.5145    1.0000 </r>
       <r>   -1.5743    1.0000 </r>
       <r>    1.4408    1.0000 </r>
       <r>    3.2227    1.0000 </r>
       <r>    6.8297    0.0000 </r>
       <r>    9.6054    0.0000 </r>
       <r>   13.0799    0.0000 </r>
       <r>   13.6207    0.0000 </r>
      </set>
      <set comment="kpoint 120">
       <r>   -2.5421    1.0000 </r>
       <r>   -1.5449    1.0000 </r>
       <r>    1.4178    1.0000 </r>
       <r>    3.2433    1.0000 </r>
       <r>    6.8535    0.0000 </r>
       <r>    9.7323    0.0000 </r>
       <r>   13.0021    0.0000 </r>
       <r>   13.5382    0.0000 </r>
      </set>
      <set comment="kpoint 121">
       <r>   -2.5421    1.0000 </r>
       <r>   -1.5449    1.0000 </r>
       <r>    1.4178    1.0000 </r>
       <r>    3.2433    1.0000 </r>
       <r>    6.8535    0.0000 </r>
       <r>    9.7323    0.0000 </r>
       <r>   13.0020    0.0000 </r>
       <r>   13.5437    0.0000 </r>
      </set>
      <set comment="kpoint 122">
       <r>   -2.6319    1.0000 </r>
       <r>   -1.4522    1.0000 </r>
       <r>    1.3614    1.0000 </r>
       <r>    3.3078    1.0000 </r>
       <r>    6.9279    0.0000 </r>
       <r>   10.1177    0.0000 </r>
       <r>   12.7704    0.0000 </r>
       <r>   13.2992    0.0000 </r>
      </set>
      <set comment="kpoint 123">
       <r>   -2.7318    1.0000 </r>
       <r>   -1.3527    1.0000 </r>
       <r>    1.3238    1.0000 </r>
       <r>    3.3762    1.0000 </r>
       <r>    7.0068    0.0000 </r>
       <r>   10.5074    0.0000 </r>
       <r>   12.5427    0.0000 </r>
       <r>   13.0664    0.0000 </r>
      </set>
      <set comment="kpoint 124">
       <r>   -2.8409    1.0000 </r>
       <r>   -1.2464    1.0000 </r>
       <r>    1.3049    1.0000 </r>
       <r>    3.4484    1.0000 </r>
       <r>    7.0901    0.0000 </r>
       <r>   10.8974    0.0000 </r>
       <r>   12.3194    0.0000 </r>
       <r>   12.8471    0.0000 </r>
      </set>
      <set comment="kpoint 125">
       <r>   -2.9584    1.0000 </r>
       <r>   -1.1335    1.0000 </r>
       <r>    1.3042    1.0000 </r>
       <r>    3.5242    1.0000 </r>
       <r>    7.1774    0.0000 </r>
       <r>   11.2776    0.0000 </r>
       <r>   12.1005    0.0000 </r>
       <r>   12.6506    0.0000 </r>
      </set>
      <set comment="kpoint 126">
       <r>   -3.0830    1.0000 </r>
       <r>   -1.0138    1.0000 </r>
       <r>    1.3207    1.0000 </r>
       <r>    3.6033    1.0000 </r>
       <r>    7.2683    0.0000 </r>
       <r>   11.6146    0.0000 </r>
       <r>   11.8865    0.0000 </r>
       <r>   12.5069    0.0000 </r>
      </set>
      <set comment="kpoint 127">
       <r>   -3.2135    1.0000 </r>
       <r>   -0.8875    1.0000 </r>
       <r>    1.3535    1.0000 </r>
       <r>    3.6854    1.0000 </r>
       <r>    7.3623    0.0000 </r>
       <r>   11.6774    0.0000 </r>
       <r>   11.7959    0.0000 </r>
       <r>   12.5280    0.0000 </r>
      </set>
      <set comment="kpoint 128">
       <r>   -3.3486    1.0000 </r>
       <r>   -0.7546    1.0000 </r>
       <r>    1.4014    1.0000 </r>
       <r>    3.7703    1.0000 </r>
       <r>    7.4591    0.0000 </r>
       <r>   11.4737    0.0000 </r>
       <r>   11.7440    0.0000 </r>
       <r>   12.4730    0.0000 </r>
      </set>
      <set comment="kpoint 129">
       <r>   -3.4870    1.0000 </r>
       <r>   -0.6151    1.0000 </r>
       <r>    1.4635    1.0000 </r>
       <r>    3.8576    1.0000 </r>
       <r>    7.5580    0.0000 </r>
       <r>   11.2754    0.0000 </r>
       <r>   11.5928    0.0000 </r>
       <r>   12.3176    0.0000 </r>
      </set>
      <set comment="kpoint 130">
       <r>   -3.6277    1.0000 </r>
       <r>   -0.4690    1.0000 </r>
       <r>    1.5385    1.0000 </r>
       <r>    3.9470    1.0000 </r>
       <r>    7.6585    0.0000 </r>
       <r>   11.0826    0.0000 </r>
       <r>   11.4167    0.0000 </r>
       <r>   12.1695    0.0000 </r>
      </set>
      <set comment="kpoint 131">
       <r>   -3.7694    1.0000 </r>
       <r>   -0.3164    1.0000 </r>
       <r>    1.6255    1.0000 </r>
       <r>    4.0381    1.0000 </r>
       <r>    7.7596    0.0000 </r>
       <r>   10.8954    0.0000 </r>
       <r>   11.2353    0.0000 </r>
       <r>   12.0349    0.0000 </r>
      </set>
      <set comment="kpoint 132">
       <r>   -3.9113    1.0000 </r>
       <r>   -0.1574    1.0000 </r>
       <r>    1.7235    1.0000 </r>
       <r>    4.1304    1.0000 </r>
       <r>    7.8606    0.0000 </r>
       <r>   10.7141    0.0000 </r>
       <r>   11.0545    0.0000 </r>
       <r>   11.8970    0.0000 </r>
      </set>
      <set comment="kpoint 133">
       <r>   -4.0524    1.0000 </r>
       <r>    0.0081    1.0000 </r>
       <r>    1.8318    1.0000 </r>
       <r>    4.2236    1.0000 </r>
       <r>    7.9603    0.0000 </r>
       <r>   10.5386    0.0000 </r>
       <r>   10.8772    0.0000 </r>
       <r>   11.7763    0.0000 </r>
      </set>
      <set comment="kpoint 134">
       <r>   -4.1921    1.0000 </r>
       <r>    0.1799    1.0000 </r>
       <r>    1.9494    1.0000 </r>
       <r>    4.3170    1.0000 </r>
       <r>    8.0577    0.0000 </r>
       <r>   10.3690    0.0000 </r>
       <r>   10.7041    0.0000 </r>
       <r>   11.6625    0.0000 </r>
      </set>
      <set comment="kpoint 135">
       <r>   -4.3297    1.0000 </r>
       <r>    0.3580    1.0000 </r>
       <r>    2.0756    1.0000 </r>
       <r>    4.4104    1.0000 </r>
       <r>    8.1514    0.0000 </r>
       <r>   10.2056    0.0000 </r>
       <r>   10.5362    0.0000 </r>
       <r>   11.5617    0.0000 </r>
      </set>
      <set comment="kpoint 136">
       <r>   -4.4646    1.0000 </r>
       <r>    0.5423    1.0000 </r>
       <r>    2.2098    1.0000 </r>
       <r>    4.5031    1.0000 </r>
       <r>    8.2399    0.0000 </r>
       <r>   10.0481    0.0000 </r>
       <r>   10.3735    0.0000 </r>
       <r>   11.4729    0.0000 </r>
      </set>
      <set comment="kpoint 137">
       <r>   -4.5963    1.0000 </r>
       <r>    0.7327    1.0000 </r>
       <r>    2.3513    1.0000 </r>
       <r>    4.5945    1.0000 </r>
       <r>    8.3217    0.0000 </r>
       <r>    9.8968    0.0000 </r>
       <r>   10.2162    0.0000 </r>
       <r>   11.3971    0.0000 </r>
      </set>
      <set comment="kpoint 138">
       <r>   -4.7244    1.0000 </r>
       <r>    0.9292    1.0000 </r>
       <r>    2.4995    1.0000 </r>
       <r>    4.6841    1.0000 </r>
       <r>    8.3954    0.0000 </r>
       <r>    9.7516    0.0000 </r>
       <r>   10.0646    0.0000 </r>
       <r>   11.3346    0.0000 </r>
      </set>
      <set comment="kpoint 139">
       <r>   -4.8485    1.0000 </r>
       <r>    1.1316    1.0000 </r>
       <r>    2.6538    1.0000 </r>
       <r>    4.7714    1.0000 </r>
       <r>    8.4594    0.0000 </r>
       <r>    9.6127    0.0000 </r>
       <r>    9.9186    0.0000 </r>
       <r>   11.2859    0.0000 </r>
      </set>
      <set comment="kpoint 140">
       <r>   -4.9683    1.0000 </r>
       <r>    1.3399    1.0000 </r>
       <r>    2.8136    1.0000 </r>
       <r>    4.8558    1.0000 </r>
       <r>    8.5129    0.0000 </r>
       <r>    9.4799    0.0000 </r>
       <r>    9.7784    0.0000 </r>
       <r>   11.2502    0.0000 </r>
      </set>
      <set comment="kpoint 141">
       <r>   -5.0835    1.0000 </r>
       <r>    1.5538    1.0000 </r>
       <r>    2.9783    1.0000 </r>
       <r>    4.9368    1.0000 </r>
       <r>    8.5548    0.0000 </r>
       <r>    9.3536    0.0000 </r>
       <r>    9.6437    0.0000 </r>
       <r>   11.2261    0.0000 </r>
      </set>
      <set comment="kpoint 142">
       <r>   -5.1938    1.0000 </r>
       <r>    1.7732    1.0000 </r>
       <r>    3.1472    1.0000 </r>
       <r>    5.0139    1.0000 </r>
       <r>    8.5852    0.0000 </r>
       <r>    9.2334    0.0000 </r>
       <r>    9.5146    0.0000 </r>
       <r>   11.2108    0.0000 </r>
      </set>
[...]
       </set>
       <set comment="band 5">
        <r>  0.0000  0.0125  0.1001  0.0375  0.0000  0.0000  0.0000  0.0000  0.0000 </r>
        <r>  0.0000  0.0125  0.1001  0.0375  0.0000  0.0000  0.0000  0.0000  0.0000 </r>
       </set>
       <set comment="band 6">
        <r>  0.1060  0.0174  0.0344  0.0517  0.0000  0.0000  0.0000  0.0000  0.0000 </r>
        <r>  0.1060  0.0174  0.0344  0.0517  0.0000  0.0000  0.0000  0.0000  0.0000 </r>
       </set>
       <set comment="band 7">
        <r>  0.0193  0.0609  0.0234  0.0515  0.0000  0.0000  0.0000  0.0000  0.0000 </r>
        <r>  0.0193  0.0609  0.0234  0.0515  0.0000  0.0000  0.0000  0.0000  0.0000 </r>
       </set>
       <set comment="band 8">
        <r>  0.1482  0.0809  0.0050  0.0336  0.0000  0.0000  0.0000  0.0000  0.0000 </r>
        <r>  0.1482  0.0809  0.0050  0.0336  0.0000  0.0000  0.0000  0.0000  0.0000 </r>
       </set>
      </set>
      <set comment="kpoint 151">
       <set comment="band 1">
        <r>  0.2108  0.0020  0.0000  0.0007  0.0000  0.0000  0.0000  0.0000  0.0000 </r>
        <r>  0.2108  0.0020  0.0000  0.0007  0.0000  0.0000  0.0000  0.0000  0.0000 </r>
       </set>
       <set comment="band 2">
        <r>  0.0789  0.0982  0.0078  0.0432  0.0000  0.0000  0.0000  0.0000  0.0000 </r>
        <r>  0.0789  0.0982  0.0078  0.0432  0.0000  0.0000  0.0000  0.0000  0.0000 </r>
       </set>
       <set comment="band 3">
        <r>  0.0031  0.0575  0.0500  0.0859  0.0000  0.0000  0.0000  0.0000  0.0000 </r>
        <r>  0.0031  0.0575  0.0500  0.0859  0.0000  0.0000  0.0000  0.0000  0.0000 </r>
       </set>
       <set comment="band 4">
        <r>  0.0000  0.0181  0.1447  0.0543  0.0000  0.0000  0.0000  0.0000  0.0000 </r>
        <r>  0.0000  0.0181  0.1447  0.0543  0.0000  0.0000  0.0000  0.0000  0.0000 </r>
       </set>
       <set comment="band 5">
        <r>  0.0000  0.0125  0.1002  0.0376  0.0000  0.0000  0.0000  0.0000  0.0000 </r>
        <r>  0.0000  0.0125  0.1002  0.0376  0.0000  0.0000  0.0000  0.0000  0.0000 </r>
       </set>
       <set comment="band 6">
        <r>  0.1026  0.0178  0.0350  0.0526  0.0000  0.0000  0.0000  0.0000  0.0000 </r>
        <r>  0.1026  0.0178  0.0350  0.0526  0.0000  0.0000  0.0000  0.0000  0.0000 </r>
       </set>
       <set comment="band 7">
        <r>  0.0171  0.0667  0.0211  0.0503  0.0000  0.0000  0.0000  0.0000  0.0000 </r>
        <r>  0.0171  0.0667  0.0211  0.0503  0.0000  0.0000  0.0000  0.0000  0.0000 </r>
       </set>
       <set comment="band 8">
        <r>  0.1644  0.0755  0.0057  0.0328  0.0000  0.0000  0.0000  0.0000  0.0000 </r>
        <r>  0.1644  0.0755  0.0057  0.0328  0.0000  0.0000  0.0000  0.0000  0.0000 </r>
       </set>
      </set>
      <set comment="kpoint 152">
       <set comment="band 1">
        <r>  0.2110  0.0016  0.0000  0.0005  0.0000  0.0000  0.0000  0.0000  0.0000 </r>
        <r>  0.2110  0.0016  0.0000  0.0005  0.0000  0.0000  0.0000  0.0000  0.0000 </r>
       </set>
       <set comment="band 2">
        <r>  0.0712  0.1040  0.0072  0.0443  0.0000  0.0000  0.0000  0.0000  0.0000 </r>
        <r>  0.0712  0.1040  0.0072  0.0443  0.0000  0.0000  0.0000  0.0000  0.0000 </r>
       </set>
       <set comment="band 3">
        <r>  0.0023  0.0553  0.0527  0.0887  0.0000  0.0000  0.0000  0.0000  0.0000 </r>
        <r>  0.0023  0.0553  0.0527  0.0887  0.0000  0.0000  0.0000  0.0000  0.0000 </r>
       </set>
       <set comment="band 4">
        <r>  0.0000  0.0180  0.1444  0.0541  0.0000  0.0000  0.0000  0.0000  0.0000 </r>
        <r>  0.0000  0.0180  0.1444  0.0541  0.0000  0.0000  0.0000  0.0000  0.0000 </r>
       </set>
       <set comment="band 5">
        <r>  0.0000  0.0125  0.1002  0.0376  0.0000  0.0000  0.0000  0.0000  0.0000 </r>
        <r>  0.0000  0.0125  0.1002  0.0376  0.0000  0.0000  0.0000  0.0000  0.0000 </r>
       </set>
       <set comment="band 6">
        <r>  0.0972  0.0184  0.0358  0.0538  0.0000  0.0000  0.0000  0.0000  0.0000 </r>
        <r>  0.0972  0.0184  0.0358  0.0538  0.0000  0.0000  0.0000  0.0000  0.0000 </r>
       </set>
       <set comment="band 7">
        <r>  0.0147  0.0728  0.0185  0.0489  0.0000  0.0000  0.0000  0.0000  0.0000 </r>
        <r>  0.0147  0.0728  0.0185  0.0489  0.0000  0.0000  0.0000  0.0000  0.0000 </r>
       </set>
       <set comment="band 8">
        <r>  0.1816  0.0684  0.0061  0.0310  0.0000  0.0000  0.0000  0.0000  0.0000 </r>
        <r>  0.1816  0.0684  0.0061  0.0310  0.0000  0.0000  0.0000  0.0000  0.0000 </r>
       </set>
      </set>
      <set comment="kpoint 153">
       <set comment="band 1">
        <r>  0.2112  0.0012  0.0000  0.0004  0.0000  0.0000  0.0000  0.0000  0.0000 </r>
        <r>  0.2112  0.0012  0.0000  0.0004  0.0000  0.0000  0.0000  0.0000  0.0000 </r>
       </set>
       <set comment="band 2">
        <r>  0.0629  0.1104  0.0065  0.0455  0.0000  0.0000  0.0000  0.0000  0.0000 </r>
        <r>  0.0629  0.1104  0.0065  0.0455  0.0000  0.0000  0.0000  0.0000  0.0000 </r>
       </set>
       <set comment="band 3">
        <r>  0.0015  0.0526  0.0556  0.0917  0.0000  0.0000  0.0000  0.0000  0.0000 </r>
        <r>  0.0015  0.0526  0.0556  0.0917  0.0000  0.0000  0.0000  0.0000  0.0000 </r>
       </set>
       <set comment="band 4">
        <r>  0.0000  0.0180  0.1440  0.0540  0.0000  0.0000  0.0000  0.0000  0.0000 </r>
        <r>  0.0000  0.0180  0.1440  0.0540  0.0000  0.0000  0.0000  0.0000  0.0000 </r>
       </set>
       <set comment="band 5">
        <r>  0.0000  0.0125  0.1003  0.0376  0.0000  0.0000  0.0000  0.0000  0.0000 </r>
        <r>  0.0000  0.0125  0.1003  0.0376  0.0000  0.0000  0.0000  0.0000  0.0000 </r>
       </set>
       <set comment="band 6">
        <r>  0.0892  0.0194  0.0368  0.0556  0.0000  0.0000  0.0000  0.0000  0.0000 </r>
        <r>  0.0892  0.0194  0.0368  0.0556  0.0000  0.0000  0.0000  0.0000  0.0000 </r>
       </set>
       <set comment="band 7">
        <r>  0.0122  0.0793  0.0157  0.0474  0.0000  0.0000  0.0000  0.0000  0.0000 </r>
        <r>  0.0122  0.0793  0.0157  0.0474  0.0000  0.0000  0.0000  0.0000  0.0000 </r>
       </set>
       <set comment="band 8">
        <r>  0.2008  0.0601  0.0062  0.0283  0.0000  0.0000  0.0000  0.0000  0.0000 </r>
        <r>  0.2008  0.0601  0.0062  0.0283  0.0000  0.0000  0.0000  0.0000  0.0000 </r>
       </set>
      </set>
      <set comment="kpoint 154">
       <set comment="band 1">
        <r>  0.2114  0.0009  0.0000  0.0003  0.0000  0.0000  0.0000  0.0000  0.0000 </r>
        <r>  0.2114  0.0009  0.0000  0.0003  0.0000  0.0000  0.0000  0.0000  0.0000 </r>
       </set>
       <set comment="band 2">
        <r>  0.0536  0.1175  0.0057  0.0468  0.0000  0.0000  0.0000  0.0000  0.0000 </r>
        <r>  0.0536  0.1175  0.0057  0.0468  0.0000  0.0000  0.0000  0.0000  0.0000 </r>
       </set>
       <set comment="band 3">
        <r>  0.0010  0.0497  0.0586  0.0947  0.0000  0.0000  0.0000  0.0000  0.0000 </r>
        <r>  0.0010  0.0497  0.0586  0.0947  0.0000  0.0000  0.0000  0.0000  0.0000 </r>
       </set>
       <set comment="band 4">
        <r>  0.0000  0.0180  0.1437  0.0539  0.0000  0.0000  0.0000  0.0000  0.0000 </r>
        <r>  0.0000  0.0180  0.1437  0.0539  0.0000  0.0000  0.0000  0.0000  0.0000 </r>
       </set>
       <set comment="band 5">
        <r>  0.0000  0.0125  0.1003  0.0376  0.0000  0.0000  0.0000  0.0000  0.0000 </r>
        <r>  0.0000  0.0125  0.1003  0.0376  0.0000  0.0000  0.0000  0.0000  0.0000 </r>
       </set>
       <set comment="band 6">
        <r>  0.0097  0.0860  0.0127  0.0456  0.0000  0.0000  0.0000  0.0000  0.0000 </r>
        <r>  0.0097  0.0860  0.0127  0.0456  0.0000  0.0000  0.0000  0.0000  0.0000 </r>
       </set>
       <set comment="band 7">
        <r>  0.0778  0.0207  0.0383  0.0580  0.0000  0.0000  0.0000  0.0000  0.0000 </r>
        <r>  0.0778  0.0207  0.0383  0.0580  0.0000  0.0000  0.0000  0.0000  0.0000 </r>
       </set>
       <set comment="band 8">
        <r>  0.2234  0.0506  0.0058  0.0246  0.0000  0.0000  0.0000  0.0000  0.0000 </r>
        <r>  0.2234  0.0506  0.0058  0.0246  0.0000  0.0000  0.0000  0.0000  0.0000 </r>
       </set>
      </set>
      <set comment="kpoint 155">
       <set comment="band 1">
        <r>  0.2116  0.0006  0.0000  0.0002  0.0000  0.0000  0.0000  0.0000  0.0000 </r>
        <r>  0.2116  0.0006  0.0000  0.0002  0.0000  0.0000  0.0000  0.0000  0.0000 </r>
       </set>
       <set comment="band 2">
        <r>  0.0435  0.1254  0.0048  0.0481  0.0000  0.0000  0.0000  0.0000  0.0000 </r>
        <r>  0.0435  0.1254  0.0048  0.0481  0.0000  0.0000  0.0000  0.0000  0.0000 </r>
       </set>
       <set comment="band 3">
        <r>  0.0005  0.0465  0.0617  0.0978  0.0000  0.0000  0.0000  0.0000  0.0000 </r>
        <r>  0.0005  0.0465  0.0617  0.0978  0.0000  0.0000  0.0000  0.0000  0.0000 </r>
       </set>
       <set comment="band 4">
        <r>  0.0000  0.0179  0.1434  0.0538  0.0000  0.0000  0.0000  0.0000  0.0000 </r>
        <r>  0.0000  0.0179  0.1434  0.0538  0.0000  0.0000  0.0000  0.0000  0.0000 </r>
       </set>
       <set comment="band 5">
        <r>  0.0000  0.0125  0.1004  0.0376  0.0000  0.0000  0.0000  0.0000  0.0000 </r>
        <r>  0.0000  0.0125  0.1004  0.0376  0.0000  0.0000  0.0000  0.0000  0.0000 </r>
       </set>
       <set comment="band 6">
        <r>  0.0072  0.0927  0.0097  0.0438  0.0000  0.0000  0.0000  0.0000  0.0000 </r>
        <r>  0.0072  0.0927  0.0097  0.0438  0.0000  0.0000  0.0000  0.0000  0.0000 </r>
       </set>
       <set comment="band 7">
        <r>  0.0620  0.0225  0.0404  0.0613  0.0000  0.0000  0.0000  0.0000  0.0000 </r>
        <r>  0.0620  0.0225  0.0404  0.0613  0.0000  0.0000  0.0000  0.0000  0.0000 </r>
       </set>
       <set comment="band 8">
        <r>  0.2507  0.0400  0.0049  0.0198  0.0000  0.0000  0.0000  0.0000  0.0000 </r>
        <r>  0.2507  0.0400  0.0049  0.0198  0.0000  0.0000  0.0000  0.0000  0.0000 </r>
       </set>
      </set>
      <set comment="kpoint 156">
       <set comment="band 1">
        <r>  0.2117  0.0004  0.0000  0.0001  0.0000  0.0000  0.0000  0.0000  0.0000 </r>
        <r>  0.2117  0.0004  0.0000  0.0001  0.0000  0.0000  0.0000  0.0000  0.0000 </r>
       </set>
       <set comment="band 2">
        <r>  0.0326  0.1340  0.0037  0.0495  0.0000  0.0000  0.0000  0.0000  0.0000 </r>
        <r>  0.0326  0.1340  0.0037  0.0495  0.0000  0.0000  0.0000  0.0000  0.0000 </r>
       </set>
       <set comment="band 3">
        <r>  0.0002  0.0433  0.0646  0.1006  0.0000  0.0000  0.0000  0.0000  0.0000 </r>
        <r>  0.0002  0.0433  0.0646  0.1006  0.0000  0.0000  0.0000  0.0000  0.0000 </r>
       </set>
       <set comment="band 4">
        <r>  0.0000  0.0179  0.1431  0.0537  0.0000  0.0000  0.0000  0.0000  0.0000 </r>
        <r>  0.0000  0.0179  0.1431  0.0537  0.0000  0.0000  0.0000  0.0000  0.0000 </r>
       </set>
       <set comment="band 5">
        <r>  0.0000  0.0126  0.1004  0.0377  0.0000  0.0000  0.0000  0.0000  0.0000 </r>
        <r>  0.0000  0.0126  0.1004  0.0377  0.0000  0.0000  0.0000  0.0000  0.0000 </r>
       </set>
       <set comment="band 6">
        <r>  0.0049  0.0990  0.0067  0.0420  0.0000  0.0000  0.0000  0.0000  0.0000 </r>
        <r>  0.0049  0.0990  0.0067  0.0420  0.0000  0.0000  0.0000  0.0000  0.0000 </r>
       </set>
       <set comment="band 7">
        <r>  0.0419  0.0246  0.0430  0.0656  0.0000  0.0000  0.0000  0.0000  0.0000 </r>
        <r>  0.0419  0.0246  0.0430  0.0656  0.0000  0.0000  0.0000  0.0000  0.0000 </r>
       </set>
       <set comment="band 8">
        <r>  0.2826  0.0284  0.0034  0.0140  0.0000  0.0000  0.0000  0.0000  0.0000 </r>
        <r>  0.2826  0.0284  0.0034  0.0140  0.0000  0.0000  0.0000  0.0000  0.0000 </r>
       </set>
      </set>
      <set comment="kpoint 157">
       <set comment="band 1">
        <r>  0.2118  0.0002  0.0000  0.0001  0.0000  0.0000  0.0000  0.0000  0.0000 </r>
        <r>  0.2118  0.0002  0.0000  0.0001  0.0000  0.0000  0.0000  0.0000  0.0000 </r>
       </set>
       <set comment="band 2">
        <r>  0.0214  0.1430  0.0025  0.0509  0.0000  0.0000  0.0000  0.0000  0.0000 </r>
        <r>  0.0214  0.1430  0.0025  0.0509  0.0000  0.0000  0.0000  0.0000  0.0000 </r>
       </set>
       <set comment="band 3">
        <r>  0.0001  0.0404  0.0673  0.1032  0.0000  0.0000  0.0000  0.0000  0.0000 </r>
        <r>  0.0001  0.0404  0.0673  0.1032  0.0000  0.0000  0.0000  0.0000  0.0000 </r>
       </set>
       <set comment="band 4">
        <r>  0.0000  0.0179  0.1429  0.0536  0.0000  0.0000  0.0000  0.0000  0.0000 </r>
        <r>  0.0000  0.0179  0.1429  0.0536  0.0000  0.0000  0.0000  0.0000  0.0000 </r>
       </set>
       <set comment="band 5">
        <r>  0.0000  0.0126  0.1004  0.0377  0.0000  0.0000  0.0000  0.0000  0.0000 </r>
        <r>  0.0000  0.0126  0.1004  0.0377  0.0000  0.0000  0.0000  0.0000  0.0000 </r>
       </set>
       <set comment="band 6">
        <r>  0.0029  0.1047  0.0041  0.0403  0.0000  0.0000  0.0000  0.0000  0.0000 </r>
        <r>  0.0029  0.1047  0.0041  0.0403  0.0000  0.0000  0.0000  0.0000  0.0000 </r>
       </set>
       <set comment="band 7">
        <r>  0.0208  0.0265  0.0460  0.0701  0.0000  0.0000  0.0000  0.0000  0.0000 </r>
        <r>  0.0208  0.0265  0.0460  0.0701  0.0000  0.0000  0.0000  0.0000  0.0000 </r>
       </set>
       <set comment="band 8">
        <r>  0.3156  0.0168  0.0017  0.0079  0.0000  0.0000  0.0000  0.0000  0.0000 </r>
        <r>  0.3156  0.0168  0.0017  0.0079  0.0000  0.0000  0.0000  0.0000  0.0000 </r>
       </set>
      </set>
      <set comment="kpoint 158">
       <set comment="band 1">
        <r>  0.2119  0.0001  0.0000  0.0000  0.0000  0.0000  0.0000  0.0000  0.0000 </r>
        <r>  0.2119  0.0001  0.0000  0.0000  0.0000  0.0000  0.0000  0.0000  0.0000 </r>
       </set>
       <set comment="band 2">
        <r>  0.0108  0.1515  0.0013  0.0522  0.0000  0.0000  0.0000  0.0000  0.0000 </r>
        <r>  0.0108  0.1515  0.0013  0.0522  0.0000  0.0000  0.0000  0.0000  0.0000 </r>
       </set>
       <set comment="band 3">
        <r>  0.0000  0.0379  0.0694  0.1052  0.0000  0.0000  0.0000  0.0000  0.0000 </r>
        <r>  0.0000  0.0379  0.0694  0.1052  0.0000  0.0000  0.0000  0.0000  0.0000 </r>
       </set>
       <set comment="band 4">
        <r>  0.0000  0.0178  0.1427  0.0535  0.0000  0.0000  0.0000  0.0000  0.0000 </r>
        <r>  0.0000  0.0178  0.1427  0.0535  0.0000  0.0000  0.0000  0.0000  0.0000 </r>
       </set>
       <set comment="band 5">
        <r>  0.0000  0.0126  0.1005  0.0377  0.0000  0.0000  0.0000  0.0000  0.0000 </r>
        <r>  0.0000  0.0126  0.1005  0.0377  0.0000  0.0000  0.0000  0.0000  0.0000 </r>
       </set>
       <set comment="band 6">
        <r>  0.0014  0.1091  0.0019  0.0389  0.0000  0.0000  0.0000  0.0000  0.0000 </r>
        <r>  0.0014  0.1091  0.0019  0.0389  0.0000  0.0000  0.0000  0.0000  0.0000 </r>
       </set>
       <set comment="band 7">
        <r>  0.0058  0.0270  0.0484  0.0736  0.0000  0.0000  0.0000  0.0000  0.0000 </r>
        <r>  0.0058  0.0270  0.0484  0.0736  0.0000  0.0000  0.0000  0.0000  0.0000 </r>
       </set>
       <set comment="band 8">
        <r>  0.3417  0.0074  0.0005  0.0031  0.0000  0.0000  0.0000  0.0000  0.0000 </r>
        <r>  0.3417  0.0074  0.0005  0.0031  0.0000  0.0000  0.0000  0.0000  0.0000 </r>
       </set>
      </set>
      <set comment="kpoint 159">
       <set comment="band 1">
        <r>  0.2120  0.0000  0.0000  0.0000  0.0000  0.0000  0.0000  0.0000  0.0000 </r>
        <r>  0.2120  0.0000  0.0000  0.0000  0.0000  0.0000  0.0000  0.0000  0.0000 </r>
       </set>
       <set comment="band 2">
        <r>  0.0030  0.1580  0.0004  0.0531  0.0000  0.0000  0.0000  0.0000  0.0000 </r>
        <r>  0.0030  0.1580  0.0004  0.0531  0.0000  0.0000  0.0000  0.0000  0.0000 </r>
       </set>
       <set comment="band 3">
        <r>  0.0000  0.0362  0.0708  0.1065  0.0000  0.0000  0.0000  0.0000  0.0000 </r>
        <r>  0.0000  0.0362  0.0708  0.1065  0.0000  0.0000  0.0000  0.0000  0.0000 </r>
       </set>
       <set comment="band 4">
        <r>  0.0000  0.0178  0.1426  0.0535  0.0000  0.0000  0.0000  0.0000  0.0000 </r>
        <r>  0.0000  0.0178  0.1426  0.0535  0.0000  0.0000  0.0000  0.0000  0.0000 </r>
       </set>
       <set comment="band 5">
        <r>  0.0000  0.0126  0.1005  0.0377  0.0000  0.0000  0.0000  0.0000  0.0000 </r>
        <r>  0.0000  0.0126  0.1005  0.0377  0.0000  0.0000  0.0000  0.0000  0.0000 </r>
       </set>
       <set comment="band 6">
        <r>  0.0003  0.1120  0.0005  0.0380  0.0000  0.0000  0.0000  0.0000  0.0000 </r>
        <r>  0.0003  0.1120  0.0005  0.0380  0.0000  0.0000  0.0000  0.0000  0.0000 </r>
       </set>
       <set comment="band 7">
        <r>  0.0004  0.0259  0.0498  0.0751  0.0000  0.0000  0.0000  0.0000  0.0000 </r>
        <r>  0.0004  0.0259  0.0498  0.0751  0.0000  0.0000  0.0000  0.0000  0.0000 </r>
       </set>
       <set comment="band 8">
        <r>  0.3551  0.0017  0.0000  0.0006  0.0000  0.0000  0.0000  0.0000  0.0000 </r>
        <r>  0.3551  0.0017  0.0000  0.0006  0.0000  0.0000  0.0000  0.0000  0.0000 </r>
       </set>
      </set>
      <set comment="kpoint 160">
       <set comment="band 1">
        <r>  0.2120  0.0000  0.0000  0.0000  0.0000  0.0000  0.0000  0.0000  0.0000 </r>
        <r>  0.2120  0.0000  0.0000  0.0000  0.0000  0.0000  0.0000  0.0000  0.0000 </r>
       </set>
       <set comment="band 2">
        <r>  0.0000  0.0475  0.0238  0.1426  0.0000  0.0000  0.0000  0.0000  0.0000 </r>
        <r>  0.0000  0.0475  0.0238  0.1426  0.0000  0.0000  0.0000  0.0000  0.0000 </r>
       </set>
       <set comment="band 3">
        <r>  0.0000  0.0527  0.0948  0.0664  0.0000  0.0000  0.0000  0.0000  0.0000 </r>
        <r>  0.0000  0.0527  0.0948  0.0664  0.0000  0.0000  0.0000  0.0000  0.0000 </r>
       </set>
       <set comment="band 4">
        <r>  0.0000  0.1137  0.0953  0.0049  0.0000  0.0000  0.0000  0.0000  0.0000 </r>
        <r>  0.0000  0.1137  0.0953  0.0049  0.0000  0.0000  0.0000  0.0000  0.0000 </r>
       </set>
       <set comment="band 5">
        <r>  0.0000  0.0388  0.0193  0.0926  0.0000  0.0000  0.0000  0.0000  0.0000 </r>
        <r>  0.0000  0.0388  0.0193  0.0926  0.0000  0.0000  0.0000  0.0000  0.0000 </r>
       </set>
       <set comment="band 6">
        <r>  0.0000  0.0408  0.1095  0.0004  0.0000  0.0000  0.0000  0.0000  0.0000 </r>
        <r>  0.0000  0.0408  0.1095  0.0004  0.0000  0.0000  0.0000  0.0000  0.0000 </r>
       </set>
       <set comment="band 7">
        <r>  0.0000  0.0711  0.0219  0.0577  0.0000  0.0000  0.0000  0.0000  0.0000 </r>
        <r>  0.0000  0.0711  0.0219  0.0577  0.0000  0.0000  0.0000  0.0000  0.0000 </r>
       </set>
       <set comment="band 8">
        <r>  0.3586  0.0000  0.0000  0.0000  0.0000  0.0000  0.0000  0.0000  0.0000 </r>
        <r>  0.3586  0.0000  0.0000  0.0000  0.0000  0.0000  0.0000  0.0000  0.0000 </r>
       </set>
      </set>
     </set>
    </set>
   </array>
  </projected>
 </calculation>
 <structure name="finalpos" >
  <crystal>
   <varray name="basis" >
    <v>       3.86669993       0.00000000       0.00000000 </v>
    <v>       1.93334997       3.34866037       0.00000000 </v>
    <v>       1.93334997       1.11622012       3.15714728 </v>
   </varray>
   <i name="volume">     40.87957906 </i>
   <varray name="rec_basis" >
    <v>       0.25861846      -0.14931344      -0.10558055 </v>
    <v>       0.00000000       0.29862688      -0.10558055 </v>
    <v>       0.00000000       0.00000000       0.31674164 </v>
   </varray>
  </crystal>
  <varray name="positions" >
   <v>       0.12500000       0.12500000       0.12500000 </v>
   <v>       0.87500000       0.87500000       0.87500000 </v>
  </varray>
 </structure>
</modeling>
