unknown system                          
           1
     3.866700    0.000000    0.000000
     1.933350    3.348660    0.000000
     1.933350    1.116220    3.157147
   Si
   2
Direct configuration=     1
   0.12500000  0.12500000  0.12500000
   0.87500000  0.87500000  0.87500000
